/*--------------------------------*- C++ -*----------------------------------*\
  =========                 |
  \\      /  F ield         | OpenFOAM: The Open Source CFD Toolbox
   \\    /   O peration     | Website:  https://openfoam.org
    \\  /    A nd           | Version:  9
     \\/     M anipulation  |
\*---------------------------------------------------------------------------*/
FoamFile
{
    format      ascii;
    class       volScalarField;
    location    "0";
    object      f_0;
}
// * * * * * * * * * * * * * * * * * * * * * * * * * * * * * * * * * * * * * //

dimensions      [1 -3 0 0 0 0 0];

internalField   nonuniform List<scalar> 
1000
(
666.667
666.667
666.667
666.667
666.667
666.667
666.667
666.667
666.667
666.667
666.667
666.667
666.667
666.667
666.667
666.667
666.667
666.667
666.667
666.667
666.667
666.667
666.667
666.667
666.667
666.667
666.667
666.667
666.667
666.667
666.667
666.667
666.667
666.667
666.667
666.667
666.667
666.667
666.667
666.667
666.667
666.667
666.667
666.667
666.667
666.667
666.667
666.667
666.667
666.667
666.667
666.667
666.667
666.667
666.667
666.667
666.667
666.667
666.667
666.667
666.667
666.667
666.667
666.667
666.667
666.667
666.667
666.667
666.667
666.667
666.667
666.667
666.667
666.667
666.667
666.667
666.667
666.667
666.667
666.667
666.667
666.667
666.667
666.667
666.667
666.667
666.667
666.667
666.667
666.667
666.667
666.667
666.667
666.667
666.667
666.667
666.667
666.667
666.667
666.667
666.667
666.667
666.667
666.667
666.667
666.667
666.667
666.667
666.667
666.667
666.667
666.667
666.667
666.667
666.667
666.667
666.667
666.667
666.667
666.667
666.667
666.667
666.667
666.667
666.667
666.667
666.667
666.667
666.667
666.667
666.667
666.667
666.667
666.667
666.667
666.667
666.667
666.667
666.667
666.667
666.667
666.667
666.667
666.667
666.667
666.667
666.667
666.667
666.667
666.667
666.667
666.667
666.667
666.667
666.667
666.667
666.667
666.667
666.667
666.667
666.667
666.667
666.667
666.667
666.667
666.667
666.667
666.667
666.667
666.667
666.667
666.667
666.667
666.667
666.667
666.667
666.667
666.667
666.667
666.667
666.667
666.667
666.667
666.667
666.667
666.667
666.667
666.667
666.667
666.667
666.667
666.667
666.667
666.667
666.667
666.667
666.666
666.666
666.666
666.666
666.666
666.666
666.666
666.666
666.666
666.666
666.666
666.666
666.666
666.666
666.666
666.666
666.666
666.666
666.666
666.666
666.666
666.666
666.666
666.666
666.666
666.666
666.666
666.666
666.666
666.666
666.666
666.666
666.666
666.666
666.666
666.666
666.665
666.665
666.665
666.665
666.665
666.665
666.665
666.665
666.665
666.665
666.665
666.665
666.665
666.664
666.664
666.664
666.664
666.664
666.664
666.664
666.664
666.663
666.663
666.663
666.663
666.663
666.663
666.662
666.662
666.662
666.662
666.662
666.661
666.661
666.661
666.661
666.66
666.66
666.66
666.659
666.659
666.659
666.658
666.658
666.658
666.657
666.657
666.657
666.656
666.656
666.655
666.655
666.654
666.654
666.653
666.653
666.652
666.651
666.651
666.65
666.65
666.649
666.648
666.647
666.647
666.646
666.645
666.644
666.643
666.642
666.641
666.64
666.639
666.638
666.637
666.636
666.635
666.633
666.632
666.631
666.629
666.628
666.626
666.625
666.623
666.621
666.619
666.617
666.616
666.613
666.611
666.609
666.607
666.605
666.602
666.6
666.597
666.594
666.591
666.588
666.585
666.582
666.578
666.575
666.571
666.567
666.563
666.559
666.555
666.551
666.546
666.541
666.536
666.531
666.525
666.519
666.513
666.507
666.501
666.494
666.487
666.48
666.472
666.464
666.456
666.448
666.439
666.43
666.42
666.41
666.4
666.389
666.378
666.366
666.354
666.341
666.328
666.315
666.301
666.286
666.271
666.255
666.239
666.222
666.205
666.186
666.168
666.148
666.128
666.107
666.086
666.063
666.04
666.016
665.992
665.966
665.94
665.913
665.885
665.856
665.827
665.796
665.764
665.732
665.698
665.664
665.628
665.592
665.554
665.516
665.476
665.436
665.394
665.352
665.308
665.263
665.217
665.17
665.122
665.073
665.023
664.971
664.919
664.865
664.81
664.755
664.698
664.64
664.581
664.521
664.46
664.398
664.335
664.271
664.206
664.14
664.073
664.005
663.937
663.867
663.797
663.726
663.654
663.582
663.509
663.435
663.361
663.286
663.211
663.135
663.059
662.983
662.906
662.83
662.753
662.676
662.598
662.521
662.444
662.367
662.291
662.214
662.138
662.062
661.987
661.912
661.838
661.765
661.692
661.62
661.549
661.479
661.41
661.343
661.276
661.21
661.146
661.084
661.022
660.963
660.904
660.848
660.793
660.74
660.689
660.639
660.592
660.547
660.503
660.462
660.423
660.386
660.352
660.32
660.29
660.262
660.237
660.214
660.194
660.176
660.161
660.149
660.139
660.131
660.126
660.124
660.124
660.127
660.133
660.141
660.152
660.166
660.182
660.2
660.221
660.245
660.271
660.3
660.331
660.364
660.4
660.438
660.479
660.522
660.567
660.614
660.663
660.714
660.767
660.823
660.88
660.939
660.999
661.062
661.126
661.191
661.258
661.326
661.396
661.467
661.539
661.613
661.687
661.763
661.839
661.916
661.994
662.073
662.152
662.232
662.312
662.393
662.474
662.555
662.637
662.718
662.8
662.881
662.963
663.044
663.125
663.206
663.287
663.367
663.447
663.526
663.605
663.683
663.761
663.838
663.914
663.989
664.063
664.137
664.21
664.282
664.352
664.422
664.491
664.559
664.625
664.691
664.755
664.819
664.881
664.942
665.002
665.06
665.118
665.174
665.229
665.282
665.335
665.386
665.436
665.485
665.532
665.578
665.623
665.667
665.71
665.751
665.791
665.83
665.868
665.905
665.94
665.975
666.008
666.04
666.071
666.101
666.13
666.158
666.185
666.211
666.237
666.261
666.284
666.306
666.327
666.348
666.368
666.386
666.405
666.422
666.438
666.454
666.469
666.484
666.497
666.51
666.523
666.535
666.546
666.557
666.567
666.576
666.585
666.594
666.602
666.61
666.617
666.624
666.63
666.636
666.642
666.647
666.652
666.656
666.661
666.665
666.668
666.672
666.675
666.678
666.681
666.683
666.685
666.687
666.689
666.691
666.692
666.694
666.695
666.696
666.697
666.698
666.698
666.699
666.699
666.7
666.7
666.7
666.7
666.7
666.7
666.7
666.7
666.7
666.7
666.7
666.699
666.699
666.698
666.698
666.698
666.697
666.697
666.696
666.696
666.695
666.694
666.694
666.693
666.693
666.692
666.691
666.691
666.69
666.69
666.689
666.689
666.688
666.687
666.687
666.686
666.686
666.685
666.685
666.684
666.683
666.683
666.682
666.682
666.681
666.681
666.68
666.68
666.68
666.679
666.679
666.678
666.678
666.677
666.677
666.677
666.676
666.676
666.676
666.675
666.675
666.675
666.674
666.674
666.674
666.674
666.673
666.673
666.673
666.672
666.672
666.672
666.672
666.672
666.671
666.671
666.671
666.671
666.671
666.67
666.67
666.67
666.67
666.67
666.67
666.67
666.669
666.669
666.669
666.669
666.669
666.669
666.669
666.669
666.669
666.669
666.668
666.668
666.668
666.668
666.668
666.668
666.668
666.668
666.668
666.668
666.668
666.668
666.668
666.668
666.668
666.668
666.667
666.667
666.667
666.667
666.667
666.667
666.667
666.667
666.667
666.667
666.667
666.667
666.667
666.667
666.667
666.667
666.667
666.667
666.667
666.667
666.667
666.667
666.667
666.667
666.667
666.667
666.667
666.667
666.667
666.667
666.667
666.667
666.667
666.667
666.667
666.667
666.667
666.667
666.667
666.667
666.667
666.667
666.667
666.667
666.667
666.667
666.667
666.667
666.667
666.667
666.667
666.667
666.667
666.667
666.667
666.667
666.667
666.667
666.667
666.667
666.667
666.667
666.667
666.667
666.667
666.667
666.667
666.667
666.667
666.667
666.667
666.667
666.667
666.667
666.667
666.667
666.667
666.667
666.667
666.667
666.667
666.667
666.667
666.667
666.667
666.667
666.667
666.667
666.667
666.667
666.667
666.667
666.667
666.667
666.667
666.667
666.667
666.667
666.667
666.667
666.667
666.667
666.667
666.667
666.667
666.667
666.667
666.667
666.667
666.667
666.667
666.667
666.667
666.667
666.667
666.667
666.667
666.667
666.667
666.667
666.667
666.667
666.667
666.667
666.667
666.667
666.667
666.667
666.667
666.667
666.667
666.667
666.667
666.667
666.667
666.667
666.667
666.667
666.667
666.667
666.667
666.667
666.667
666.667
666.667
666.667
666.667
666.667
666.667
666.667
666.667
666.667
666.667
666.667
666.667
666.667
666.667
666.667
666.667
666.667
666.667
666.667
666.667
666.667
666.667
666.667
666.667
666.667
666.667
666.667
666.667
666.667
666.667
666.667
666.667
666.667
666.667
666.667
666.667
666.667
666.667
666.667
666.667
666.667
666.667
666.667
666.667
666.667
666.667
666.667
666.667
666.667
666.667
666.667
666.667
666.667
666.667
666.667
666.667
666.667
666.667
666.667
666.667
666.667
666.667
666.667
666.667
666.667
666.667
666.667
666.667
666.667
666.667
666.667
666.667
666.667
666.667
666.667
666.667
666.667
666.667
666.667
666.667
666.667
666.667
)
;

boundaryField
{
    topWall
    {
        type            empty;
    }
    bottomWall
    {
        type            empty;
    }
    rightWall
    {
        type            lbmWall;
        wallVelocity    (0 0 0);
        index           0;
        value           uniform 666.667;
    }
    leftWall
    {
        type            lbmWall;
        wallVelocity    (0 0 0);
        index           0;
        value           uniform 666.667;
    }
    frontAndBack
    {
        type            empty;
    }
}


// ************************************************************************* //
