/*--------------------------------*- C++ -*----------------------------------*\
  =========                 |
  \\      /  F ield         | OpenFOAM: The Open Source CFD Toolbox
   \\    /   O peration     | Website:  https://openfoam.org
    \\  /    A nd           | Version:  9
     \\/     M anipulation  |
\*---------------------------------------------------------------------------*/
FoamFile
{
    format      ascii;
    class       volScalarField;
    location    "0";
    object      f_1;
}
// * * * * * * * * * * * * * * * * * * * * * * * * * * * * * * * * * * * * * //

dimensions      [1 -3 0 0 0 0 0];

internalField   nonuniform List<scalar> 
1000
(
166.667
166.667
166.667
166.667
166.667
166.667
166.667
166.667
166.667
166.667
166.667
166.667
166.667
166.667
166.667
166.667
166.667
166.667
166.667
166.667
166.667
166.667
166.667
166.667
166.667
166.667
166.667
166.667
166.667
166.667
166.667
166.667
166.667
166.667
166.667
166.667
166.667
166.667
166.667
166.667
166.667
166.667
166.667
166.667
166.667
166.667
166.667
166.667
166.667
166.667
166.667
166.667
166.667
166.667
166.667
166.667
166.667
166.667
166.667
166.667
166.667
166.667
166.667
166.667
166.667
166.667
166.667
166.667
166.667
166.667
166.667
166.667
166.667
166.667
166.667
166.667
166.667
166.667
166.667
166.667
166.667
166.667
166.667
166.667
166.667
166.667
166.667
166.667
166.667
166.667
166.667
166.667
166.667
166.667
166.667
166.667
166.667
166.667
166.667
166.667
166.667
166.667
166.667
166.667
166.667
166.667
166.667
166.667
166.667
166.667
166.667
166.667
166.667
166.667
166.667
166.667
166.667
166.667
166.667
166.667
166.667
166.667
166.667
166.667
166.667
166.667
166.667
166.667
166.667
166.667
166.667
166.667
166.667
166.667
166.667
166.667
166.667
166.667
166.667
166.667
166.667
166.667
166.667
166.667
166.667
166.667
166.667
166.667
166.667
166.667
166.667
166.667
166.667
166.667
166.667
166.667
166.667
166.667
166.667
166.667
166.667
166.667
166.667
166.667
166.667
166.667
166.667
166.667
166.667
166.667
166.667
166.667
166.667
166.667
166.667
166.668
166.668
166.668
166.668
166.668
166.668
166.668
166.668
166.668
166.668
166.668
166.668
166.668
166.669
166.669
166.669
166.669
166.669
166.669
166.669
166.67
166.67
166.67
166.67
166.67
166.671
166.671
166.671
166.671
166.672
166.672
166.672
166.673
166.673
166.674
166.674
166.674
166.675
166.675
166.676
166.676
166.677
166.677
166.678
166.679
166.679
166.68
166.681
166.682
166.683
166.684
166.685
166.686
166.687
166.688
166.689
166.69
166.691
166.693
166.694
166.696
166.697
166.699
166.701
166.703
166.704
166.706
166.709
166.711
166.713
166.716
166.718
166.721
166.724
166.726
166.73
166.733
166.736
166.74
166.743
166.747
166.751
166.756
166.76
166.765
166.769
166.774
166.78
166.785
166.791
166.797
166.803
166.81
166.817
166.824
166.831
166.839
166.847
166.855
166.864
166.873
166.883
166.892
166.903
166.913
166.925
166.936
166.948
166.961
166.974
166.987
167.001
167.016
167.031
167.047
167.063
167.08
167.098
167.116
167.135
167.155
167.175
167.197
167.218
167.241
167.265
167.289
167.314
167.341
167.368
167.396
167.425
167.455
167.486
167.518
167.551
167.585
167.621
167.657
167.695
167.734
167.774
167.816
167.859
167.903
167.949
167.996
168.044
168.094
168.146
168.199
168.253
168.31
168.368
168.428
168.489
168.552
168.617
168.684
168.753
168.824
168.896
168.971
169.048
169.126
169.207
169.29
169.375
169.463
169.553
169.645
169.739
169.836
169.935
170.036
170.14
170.247
170.356
170.468
170.582
170.699
170.819
170.942
171.067
171.195
171.326
171.46
171.596
171.736
171.878
172.024
172.172
172.324
172.479
172.636
172.797
172.961
173.128
173.298
173.472
173.648
173.828
174.011
174.197
174.387
174.579
174.775
174.975
175.177
175.383
175.592
175.805
176.02
176.239
176.461
176.686
176.915
177.147
177.381
177.62
177.861
178.105
178.352
178.603
178.856
179.113
179.372
179.634
179.899
180.167
180.438
180.711
180.987
181.266
181.547
181.83
182.116
182.404
182.695
182.987
183.282
183.579
183.878
184.178
184.48
184.784
185.089
185.396
185.704
186.014
186.324
186.636
186.948
187.261
187.575
187.889
188.204
188.519
188.834
189.149
189.464
189.779
190.093
190.407
190.72
191.032
191.343
191.654
191.962
192.27
192.576
192.88
193.182
193.482
193.78
194.075
194.368
194.659
194.946
195.231
195.512
195.79
196.064
196.335
196.602
196.865
197.124
197.379
197.629
197.875
198.116
198.352
198.583
198.809
199.03
199.245
199.454
199.658
199.856
200.048
200.234
200.414
200.587
200.754
200.915
201.068
201.215
201.355
201.488
201.614
201.733
201.845
201.949
202.046
202.135
202.217
202.292
202.358
202.417
202.469
202.513
202.548
202.577
202.597
202.609
202.614
202.611
202.6
202.581
202.554
202.519
202.477
202.427
202.369
202.304
202.231
202.15
202.062
201.966
201.863
201.753
201.635
201.511
201.379
201.24
201.094
200.942
200.783
200.617
200.444
200.266
200.081
199.89
199.693
199.49
199.281
199.067
198.847
198.622
198.392
198.156
197.916
197.671
197.422
197.168
196.909
196.647
196.38
196.11
195.836
195.559
195.278
194.994
194.707
194.417
194.124
193.829
193.531
193.231
192.929
192.625
192.32
192.012
191.704
191.393
191.082
190.77
190.457
190.143
189.829
189.514
189.199
188.884
188.568
188.253
187.938
187.624
187.31
186.996
186.684
186.372
186.061
185.752
185.443
185.136
184.83
184.526
184.224
183.923
183.624
183.327
183.032
182.739
182.448
182.159
181.873
181.589
181.307
181.028
180.752
180.478
180.207
179.938
179.673
179.41
179.15
178.893
178.639
178.388
178.14
177.896
177.654
177.415
177.18
176.948
176.719
176.493
176.27
176.051
175.835
175.622
175.412
175.206
175.003
174.803
174.607
174.413
174.223
174.037
173.853
173.673
173.496
173.322
173.151
172.984
172.819
172.658
172.5
172.345
172.193
172.044
171.898
171.755
171.615
171.478
171.344
171.212
171.084
170.958
170.836
170.715
170.598
170.483
170.371
170.261
170.155
170.05
169.948
169.849
169.752
169.657
169.565
169.475
169.387
169.301
169.218
169.137
169.058
168.981
168.906
168.833
168.762
168.693
168.626
168.561
168.497
168.435
168.376
168.317
168.261
168.206
168.153
168.101
168.051
168.002
167.955
167.909
167.864
167.821
167.78
167.739
167.7
167.662
167.625
167.59
167.555
167.522
167.49
167.459
167.429
167.399
167.371
167.344
167.318
167.292
167.268
167.244
167.221
167.199
167.178
167.158
167.138
167.119
167.1
167.083
167.065
167.049
167.033
167.018
167.003
166.989
166.975
166.962
166.95
166.938
166.926
166.915
166.904
166.894
166.884
166.874
166.865
166.856
166.848
166.84
166.832
166.825
166.817
166.811
166.804
166.798
166.792
166.786
166.78
166.775
166.77
166.765
166.761
166.756
166.752
166.748
166.744
166.74
166.737
166.733
166.73
166.727
166.724
166.721
166.718
166.716
166.713
166.711
166.709
166.707
166.705
166.703
166.701
166.699
166.697
166.696
166.694
166.693
166.692
166.69
166.689
166.688
166.687
166.686
166.685
166.684
166.683
166.682
166.681
166.68
166.68
166.679
166.678
166.678
166.677
166.676
166.676
166.675
166.675
166.674
166.674
166.674
166.673
166.673
166.672
166.672
166.672
166.672
166.671
166.671
166.671
166.67
166.67
166.67
166.67
166.67
166.669
166.669
166.669
166.669
166.669
166.669
166.669
166.668
166.668
166.668
166.668
166.668
166.668
166.668
166.668
166.668
166.668
166.668
166.668
166.668
166.667
166.667
166.667
166.667
166.667
166.667
166.667
166.667
166.667
166.667
166.667
166.667
166.667
166.667
166.667
166.667
166.667
166.667
166.667
166.667
166.667
166.667
166.667
166.667
166.667
166.667
166.667
166.667
166.667
166.667
166.667
166.667
166.667
166.667
166.667
166.667
166.667
166.667
166.667
166.667
166.667
166.667
166.667
166.667
166.667
166.667
166.667
166.667
166.667
166.667
166.667
166.667
166.667
166.667
166.667
166.667
166.667
166.667
166.667
166.667
166.667
166.667
166.667
166.667
166.667
166.667
166.667
166.667
166.667
166.667
166.667
166.667
166.667
166.667
166.667
166.667
166.667
166.667
166.667
166.667
166.667
166.667
166.667
166.667
166.667
166.667
166.667
166.667
166.667
166.667
166.667
166.667
166.667
166.667
166.667
166.667
166.667
166.667
166.667
166.667
166.667
166.667
166.667
166.667
166.667
166.667
166.667
166.667
166.667
166.667
166.667
166.667
166.667
166.667
166.667
166.667
166.667
166.667
166.667
166.667
166.667
166.667
166.667
166.667
166.667
166.667
166.667
166.667
166.667
166.667
166.667
166.667
166.667
166.667
166.667
166.667
166.667
166.667
166.667
166.667
166.667
166.667
166.667
166.667
166.667
166.667
166.667
166.667
166.667
166.667
166.667
166.667
166.667
166.667
166.667
166.667
166.667
166.667
166.667
166.667
166.667
166.667
166.667
166.667
166.667
166.667
166.667
166.667
166.667
166.667
166.667
166.667
166.667
166.667
)
;

boundaryField
{
    topWall
    {
        type            empty;
    }
    bottomWall
    {
        type            empty;
    }
    rightWall
    {
        type            lbmWall;
        wallVelocity    (0 0 0);
        index           1;
        value           uniform 166.667;
    }
    leftWall
    {
        type            lbmWall;
        wallVelocity    (0 0 0);
        index           1;
        value           uniform 166.667;
    }
    frontAndBack
    {
        type            empty;
    }
}


// ************************************************************************* //
