/*--------------------------------*- C++ -*----------------------------------*\
  =========                 |
  \\      /  F ield         | OpenFOAM: The Open Source CFD Toolbox
   \\    /   O peration     | Website:  https://openfoam.org
    \\  /    A nd           | Version:  9
     \\/     M anipulation  |
\*---------------------------------------------------------------------------*/
FoamFile
{
    format      ascii;
    class       volScalarField;
    location    "0";
    object      f_2;
}
// * * * * * * * * * * * * * * * * * * * * * * * * * * * * * * * * * * * * * //

dimensions      [1 -3 0 0 0 0 0];

internalField   nonuniform List<scalar> 
1000
(
166.667
166.667
166.667
166.667
166.667
166.667
166.667
166.667
166.667
166.667
166.667
166.667
166.667
166.667
166.667
166.667
166.667
166.667
166.667
166.667
166.667
166.667
166.667
166.667
166.667
166.667
166.667
166.667
166.667
166.667
166.667
166.667
166.667
166.667
166.667
166.667
166.667
166.667
166.667
166.667
166.667
166.667
166.667
166.667
166.667
166.667
166.667
166.667
166.667
166.667
166.667
166.667
166.667
166.667
166.667
166.667
166.667
166.667
166.667
166.667
166.667
166.667
166.667
166.667
166.667
166.667
166.667
166.667
166.667
166.667
166.667
166.667
166.667
166.667
166.667
166.667
166.667
166.667
166.667
166.667
166.667
166.667
166.667
166.667
166.667
166.667
166.667
166.667
166.667
166.667
166.667
166.667
166.667
166.667
166.667
166.667
166.667
166.667
166.667
166.667
166.667
166.667
166.667
166.667
166.667
166.667
166.667
166.667
166.667
166.667
166.667
166.667
166.667
166.667
166.667
166.667
166.667
166.667
166.667
166.667
166.667
166.667
166.667
166.667
166.667
166.667
166.667
166.667
166.667
166.667
166.667
166.667
166.667
166.667
166.667
166.667
166.667
166.667
166.667
166.667
166.667
166.667
166.667
166.667
166.667
166.667
166.667
166.667
166.667
166.667
166.666
166.666
166.666
166.666
166.666
166.666
166.666
166.666
166.666
166.666
166.666
166.666
166.666
166.666
166.666
166.666
166.666
166.666
166.666
166.666
166.666
166.666
166.666
166.666
166.666
166.666
166.666
166.666
166.666
166.665
166.665
166.665
166.665
166.665
166.665
166.665
166.665
166.665
166.665
166.664
166.664
166.664
166.664
166.664
166.664
166.663
166.663
166.663
166.663
166.663
166.662
166.662
166.662
166.662
166.661
166.661
166.661
166.66
166.66
166.659
166.659
166.658
166.658
166.657
166.657
166.656
166.656
166.655
166.654
166.654
166.653
166.652
166.651
166.651
166.65
166.649
166.648
166.647
166.645
166.644
166.643
166.642
166.64
166.639
166.637
166.636
166.634
166.632
166.631
166.629
166.627
166.625
166.622
166.62
166.617
166.615
166.612
166.609
166.606
166.603
166.6
166.597
166.593
166.59
166.586
166.582
166.577
166.573
166.568
166.563
166.558
166.553
166.548
166.542
166.536
166.529
166.523
166.516
166.509
166.501
166.494
166.486
166.477
166.468
166.459
166.45
166.44
166.43
166.419
166.408
166.396
166.384
166.371
166.358
166.345
166.331
166.316
166.301
166.285
166.269
166.252
166.234
166.216
166.197
166.177
166.157
166.136
166.114
166.091
166.068
166.043
166.018
165.992
165.965
165.937
165.908
165.879
165.848
165.816
165.783
165.749
165.714
165.677
165.64
165.601
165.561
165.52
165.478
165.434
165.389
165.342
165.294
165.245
165.194
165.142
165.088
165.033
164.976
164.917
164.857
164.795
164.731
164.665
164.598
164.529
164.458
164.385
164.31
164.234
164.155
164.074
163.991
163.907
163.82
163.731
163.639
163.546
163.45
163.352
163.252
163.15
163.045
162.938
162.828
162.717
162.602
162.486
162.366
162.245
162.121
161.994
161.865
161.733
161.599
161.462
161.322
161.18
161.036
160.889
160.739
160.586
160.431
160.274
160.113
159.95
159.785
159.617
159.446
159.273
159.097
158.918
158.737
158.554
158.368
158.179
157.988
157.795
157.599
157.401
157.201
156.998
156.793
156.585
156.376
156.164
155.95
155.734
155.516
155.296
155.074
154.85
154.625
154.398
154.168
153.938
153.706
153.472
153.237
153
152.762
152.523
152.283
152.042
151.8
151.557
151.313
151.068
150.823
150.577
150.33
150.084
149.836
149.589
149.342
149.094
148.847
148.6
148.353
148.106
147.86
147.614
147.37
147.125
146.882
146.64
146.398
146.158
145.919
145.682
145.446
145.211
144.978
144.747
144.518
144.291
144.066
143.843
143.622
143.403
143.187
142.974
142.763
142.555
142.35
142.148
141.948
141.752
141.559
141.37
141.183
141
140.821
140.645
140.473
140.305
140.14
139.98
139.823
139.671
139.523
139.378
139.239
139.103
138.972
138.845
138.723
138.605
138.492
138.384
138.28
138.182
138.088
137.998
137.914
137.835
137.76
137.691
137.627
137.567
137.513
137.464
137.42
137.381
137.348
137.319
137.296
137.278
137.265
137.257
137.255
137.258
137.266
137.279
137.298
137.321
137.35
137.384
137.424
137.468
137.518
137.572
137.632
137.697
137.767
137.842
137.922
138.006
138.096
138.19
138.29
138.394
138.503
138.616
138.734
138.857
138.984
139.115
139.251
139.392
139.536
139.685
139.838
139.995
140.156
140.32
140.489
140.662
140.838
141.017
141.201
141.387
141.578
141.771
141.967
142.167
142.37
142.575
142.784
142.995
143.208
143.425
143.643
143.864
144.088
144.313
144.541
144.77
145.002
145.235
145.469
145.706
145.943
146.183
146.423
146.664
146.907
147.15
147.395
147.64
147.886
148.132
148.379
148.626
148.873
149.12
149.368
149.615
149.863
150.11
150.357
150.603
150.849
151.094
151.339
151.583
151.826
152.068
152.31
152.55
152.789
153.026
153.263
153.498
153.732
153.964
154.194
154.423
154.65
154.876
155.099
155.321
155.541
155.759
155.974
156.188
156.4
156.609
156.816
157.021
157.224
157.424
157.622
157.818
158.011
158.202
158.39
158.576
158.759
158.94
159.118
159.293
159.466
159.637
159.805
159.97
160.133
160.293
160.45
160.605
160.757
160.906
161.053
161.198
161.339
161.479
161.615
161.749
161.881
162.01
162.136
162.26
162.381
162.5
162.616
162.73
162.842
162.951
163.058
163.163
163.265
163.365
163.462
163.558
163.651
163.742
163.831
163.917
164.002
164.084
164.165
164.243
164.32
164.394
164.467
164.538
164.607
164.674
164.739
164.803
164.864
164.924
164.983
165.04
165.095
165.149
165.201
165.251
165.301
165.348
165.395
165.44
165.483
165.525
165.566
165.606
165.645
165.682
165.718
165.753
165.787
165.82
165.852
165.882
165.912
165.941
165.969
165.995
166.021
166.046
166.071
166.094
166.117
166.138
166.16
166.18
166.199
166.218
166.236
166.254
166.271
166.287
166.303
166.318
166.333
166.347
166.36
166.373
166.386
166.398
166.409
166.42
166.431
166.441
166.451
166.461
166.47
166.478
166.487
166.495
166.502
166.51
166.517
166.524
166.53
166.537
166.543
166.548
166.554
166.559
166.564
166.569
166.573
166.578
166.582
166.586
166.59
166.594
166.597
166.601
166.604
166.607
166.61
166.613
166.615
166.618
166.62
166.623
166.625
166.627
166.629
166.631
166.633
166.634
166.636
166.638
166.639
166.641
166.642
166.643
166.644
166.646
166.647
166.648
166.649
166.65
166.651
166.652
166.652
166.653
166.654
166.655
166.655
166.656
166.656
166.657
166.658
166.658
166.659
166.659
166.659
166.66
166.66
166.661
166.661
166.661
166.662
166.662
166.662
166.662
166.663
166.663
166.663
166.663
166.664
166.664
166.664
166.664
166.664
166.664
166.664
166.665
166.665
166.665
166.665
166.665
166.665
166.665
166.665
166.665
166.666
166.666
166.666
166.666
166.666
166.666
166.666
166.666
166.666
166.666
166.666
166.666
166.666
166.666
166.666
166.666
166.666
166.666
166.666
166.666
166.666
166.666
166.666
166.666
166.666
166.666
166.666
166.666
166.666
166.666
166.667
166.667
166.667
166.667
166.667
166.667
166.667
166.667
166.667
166.667
166.667
166.667
166.667
166.667
166.667
166.667
166.667
166.667
166.667
166.667
166.667
166.667
166.667
166.667
166.667
166.667
166.667
166.667
166.667
166.667
166.667
166.667
166.667
166.667
166.667
166.667
166.667
166.667
166.667
166.667
166.667
166.667
166.667
166.667
166.667
166.667
166.667
166.667
166.667
166.667
166.667
166.667
166.667
166.667
166.667
166.667
166.667
166.667
166.667
166.667
166.667
166.667
166.667
166.667
166.667
166.667
166.667
166.667
166.667
166.667
166.667
166.667
166.667
166.667
166.667
166.667
166.667
166.667
166.667
166.667
166.667
166.667
166.667
166.667
166.667
166.667
166.667
166.667
166.667
166.667
166.667
166.667
166.667
166.667
166.667
166.667
166.667
166.667
166.667
166.667
166.667
166.667
166.667
166.667
166.667
166.667
166.667
166.667
166.667
166.667
166.667
166.667
166.667
166.667
166.667
166.667
166.667
166.667
166.667
166.667
166.667
166.667
166.667
166.667
166.667
166.667
166.667
166.667
166.667
166.667
166.667
166.667
166.667
166.667
166.667
166.667
166.667
166.667
166.667
166.667
166.667
166.667
166.667
166.667
166.667
166.667
166.667
166.667
166.667
166.667
166.667
)
;

boundaryField
{
    topWall
    {
        type            empty;
    }
    bottomWall
    {
        type            empty;
    }
    rightWall
    {
        type            lbmWall;
        wallVelocity    (0 0 0);
        index           2;
        value           uniform 166.667;
    }
    leftWall
    {
        type            lbmWall;
        wallVelocity    (0 0 0);
        index           2;
        value           uniform 166.667;
    }
    frontAndBack
    {
        type            empty;
    }
}


// ************************************************************************* //
