/*--------------------------------*- C++ -*----------------------------------*\
  =========                 |
  \\      /  F ield         | OpenFOAM: The Open Source CFD Toolbox
   \\    /   O peration     | Website:  https://openfoam.org
    \\  /    A nd           | Version:  9
     \\/     M anipulation  |
\*---------------------------------------------------------------------------*/
FoamFile
{
    format      ascii;
    class       volScalarField;
    location    "0";
    object      p;
}
// * * * * * * * * * * * * * * * * * * * * * * * * * * * * * * * * * * * * * //

dimensions      [1 -1 -2 0 0 0 0];

internalField   nonuniform List<scalar> 
1000
(
100000
100000
100000
100000
100000
100000
100000
100000
100000
100000
100000
100000
100000
100000
100000
100000
100000
100000
100000
100000
100000
100000
100000
100000
100000
100000
100000
100000
100000
100000
100000
100000
100000
100000
100000
100000
100000
100000
100000
100000
100000
100000
100000
100000
100000
100000
100000
100000
100000
100000
100000
100000
100000
100000
100000
100000
100000
100000
100000
100000
100000
100000
100000
100000
100000
100000
100000
100000
100000
100000
100000
100000
100000
100000
100000
100000
100000
100000
100000
100000
100000
100000
100000
100000
100000
100000
100000
100000
100000
100000
100000
100000
100000
100000
100000
100000
100000
100000
100000
100000
100000
100000
100000
100000
100000
100000
100000
100000
100000
100000
100000
100000
100000
100000
100000
100000
100000
100000
100000
100000
100000
100000
100000
100000
100000
100000
100000
100000
100000
100000
100000
100000
100000
100000
100000
100000
100000
100000
100000
100000
100000
100000
100000
100000
99999.9
99999.9
99999.9
99999.9
99999.9
99999.9
99999.9
99999.9
99999.9
99999.9
99999.9
99999.9
99999.9
99999.9
99999.9
99999.9
99999.9
99999.8
99999.8
99999.8
99999.8
99999.8
99999.8
99999.8
99999.8
99999.7
99999.7
99999.7
99999.7
99999.7
99999.6
99999.6
99999.6
99999.6
99999.5
99999.5
99999.5
99999.5
99999.4
99999.4
99999.3
99999.3
99999.3
99999.2
99999.2
99999.1
99999.1
99999
99999
99998.9
99998.8
99998.8
99998.7
99998.6
99998.5
99998.4
99998.3
99998.2
99998.1
99998
99997.9
99997.8
99997.7
99997.5
99997.4
99997.3
99997.1
99996.9
99996.8
99996.6
99996.4
99996.2
99996
99995.8
99995.6
99995.3
99995.1
99994.8
99994.5
99994.2
99993.9
99993.6
99993.3
99992.9
99992.6
99992.2
99991.8
99991.3
99990.9
99990.4
99989.9
99989.4
99988.9
99988.4
99987.8
99987.2
99986.5
99985.9
99985.2
99984.5
99983.7
99982.9
99982.1
99981.3
99980.4
99979.4
99978.5
99977.5
99976.4
99975.3
99974.2
99973
99971.8
99970.5
99969.1
99967.7
99966.3
99964.8
99963.2
99961.6
99959.9
99958.2
99956.4
99954.5
99952.5
99950.5
99948.4
99946.2
99943.9
99941.6
99939.2
99936.6
99934
99931.3
99928.5
99925.7
99922.7
99919.6
99916.4
99913.1
99909.7
99906.1
99902.5
99898.7
99894.8
99890.8
99886.7
99882.4
99878
99873.4
99868.8
99863.9
99859
99853.8
99848.6
99843.1
99837.5
99831.8
99825.9
99819.8
99813.6
99807.1
99800.6
99793.8
99786.8
99779.7
99772.3
99764.8
99757.1
99749.2
99741.1
99732.8
99724.3
99715.6
99706.6
99697.5
99688.2
99678.6
99668.8
99658.8
99648.6
99638.2
99627.5
99616.6
99605.5
99594.2
99582.6
99570.8
99558.8
99546.6
99534.1
99521.4
99508.4
99495.2
99481.8
99468.2
99454.3
99440.3
99425.9
99411.4
99396.6
99381.7
99366.5
99351
99335.4
99319.6
99303.4
99287.2
99270.8
99254.2
99237.3
99220.2
99203.1
99185.8
99168.1
99150.3
99132.6
99114.5
99096.3
99077.9
99059.4
99040.9
99022.2
99003.3
98984.4
98965.5
98946.4
98927.1
98908
98888.7
98869.3
98850
98830.6
98811.2
98791.8
98772.5
98753.1
98733.8
98714.4
98695.2
98676.1
98657.1
98638.1
98619.3
98600.6
98582
98563.6
98545.3
98527.4
98509.5
98491.9
98474.5
98457.3
98440.5
98423.8
98407.6
98391.6
98375.9
98360.6
98345.6
98331.1
98316.9
98303.1
98289.7
98276.7
98264.2
98252.3
98240.8
98229.7
98219.3
98209.4
98199.9
98191.1
98182.8
98175
98168
98161.6
98155.7
98150.5
98146.1
98142.3
98139.1
98136.7
98135
98133.9
98133.7
98134.1
98135.3
98137.4
98140.1
98143.7
98148
98153.2
98159.2
98166
98173.5
98181.9
98191
98201.1
98212.1
98223.9
98236.4
98249.8
98264.2
98279.4
98295.2
98312.1
98329.8
98348.3
98367.6
98387.8
98408.8
98430.7
98453.3
98476.8
98501.1
98526.2
98552.1
98578.7
98606.1
98634.3
98663.3
98693
98723.3
98754.4
98786.3
98818.8
98851.9
98885.7
98920.2
98955.3
98990.9
99027.2
99064
99101.3
99139.2
99177.6
99216.5
99255.8
99295.6
99335.8
99376.3
99417.3
99458.6
99500.1
99542.1
99584.4
99626.8
99669.4
99712.3
99755.4
99798.6
99841.9
99885.4
99928.8
99972.4
100016
100059
100103
100146
100190
100233
100276
100319
100362
100405
100447
100489
100531
100572
100613
100654
100695
100734
100774
100813
100852
100890
100928
100965
101001
101037
101072
101107
101141
101175
101208
101240
101271
101302
101332
101361
101390
101417
101444
101471
101496
101521
101544
101567
101590
101611
101631
101651
101670
101688
101705
101721
101736
101751
101765
101778
101790
101801
101811
101821
101829
101837
101844
101850
101855
101860
101864
101866
101869
101870
101871
101870
101870
101868
101866
101863
101859
101854
101849
101843
101837
101830
101822
101814
101805
101796
101786
101775
101764
101753
101741
101728
101715
101702
101688
101674
101659
101644
101629
101613
101597
101581
101564
101547
101530
101512
101495
101477
101459
101440
101422
101403
101384
101366
101347
101327
101308
101289
101269
101250
101231
101211
101192
101172
101153
101133
101114
101095
101075
101056
101037
101018
100999
100980
100961
100942
100924
100905
100887
100869
100851
100833
100816
100798
100781
100764
100747
100730
100714
100698
100681
100666
100650
100634
100619
100604
100589
100575
100560
100546
100532
100519
100505
100492
100479
100466
100454
100442
100430
100418
100406
100395
100384
100373
100362
100352
100341
100331
100322
100312
100303
100294
100285
100276
100267
100259
100251
100243
100235
100228
100220
100213
100206
100200
100193
100187
100180
100174
100168
100163
100157
100151
100146
100141
100136
100131
100127
100122
100118
100113
100109
100105
100101
100098
100094
100090
100087
100084
100080
100077
100074
100071
100069
100066
100063
100061
100058
100056
100054
100052
100050
100047
100046
100044
100042
100040
100038
100037
100035
100034
100032
100031
100030
100028
100027
100026
100025
100024
100023
100022
100021
100020
100019
100018
100017
100016
100016
100015
100014
100013
100013
100012
100012
100011
100011
100010
100010
100009
100009
100008
100008
100007
100007
100007
100006
100006
100006
100005
100005
100005
100005
100004
100004
100004
100004
100004
100003
100003
100003
100003
100003
100003
100002
100002
100002
100002
100002
100002
100002
100002
100002
100001
100001
100001
100001
100001
100001
100001
100001
100001
100001
100001
100001
100001
100001
100001
100001
100001
100001
100001
100000
100000
100000
100000
100000
100000
100000
100000
100000
100000
100000
100000
100000
100000
100000
100000
100000
100000
100000
100000
100000
100000
100000
100000
100000
100000
100000
100000
100000
100000
100000
100000
100000
100000
100000
100000
100000
100000
100000
100000
100000
100000
100000
100000
100000
100000
100000
100000
100000
100000
100000
100000
100000
100000
100000
100000
100000
100000
100000
100000
100000
100000
100000
100000
100000
100000
100000
100000
100000
100000
100000
100000
100000
100000
100000
100000
100000
100000
100000
100000
100000
100000
100000
100000
100000
100000
100000
100000
100000
100000
100000
100000
100000
100000
100000
100000
100000
100000
100000
100000
100000
100000
100000
100000
100000
100000
100000
100000
100000
100000
100000
100000
100000
100000
100000
100000
100000
100000
100000
100000
100000
100000
100000
100000
100000
100000
100000
100000
100000
100000
100000
100000
100000
100000
100000
100000
100000
100000
100000
100000
100000
100000
100000
100000
100000
100000
100000
100000
100000
100000
100000
100000
100000
100000
100000
100000
100000
100000
100000
100000
100000
100000
100000
100000
100000
100000
100000
100000
100000
100000
100000
100000
100000
100000
100000
100000
100000
100000
100000
100000
)
;

boundaryField
{
    topWall
    {
        type            empty;
    }
    bottomWall
    {
        type            empty;
    }
    rightWall
    {
        type            calculated;
        value           uniform 100000;
    }
    leftWall
    {
        type            calculated;
        value           uniform 100000;
    }
    frontAndBack
    {
        type            empty;
    }
}


// ************************************************************************* //
