/*--------------------------------*- C++ -*----------------------------------*\
  =========                 |
  \\      /  F ield         | OpenFOAM: The Open Source CFD Toolbox
   \\    /   O peration     | Website:  https://openfoam.org
    \\  /    A nd           | Version:  9
     \\/     M anipulation  |
\*---------------------------------------------------------------------------*/
FoamFile
{
    format      ascii;
    class       volVectorField;
    location    "1.9";
    object      U;
}
// * * * * * * * * * * * * * * * * * * * * * * * * * * * * * * * * * * * * * //

dimensions      [0 1 -1 0 0 0 0];

internalField   nonuniform List<vector> 
1000
(
(0.131753 0 0)
(0.131714 0 0)
(0.131755 0 0)
(0.131711 0 0)
(0.131756 0 0)
(0.131708 0 0)
(0.131757 0 0)
(0.131705 0 0)
(0.131758 0 0)
(0.131702 0 0)
(0.13176 0 0)
(0.131699 0 0)
(0.131761 0 0)
(0.131695 0 0)
(0.131762 0 0)
(0.131691 0 0)
(0.131763 0 0)
(0.131687 0 0)
(0.131764 0 0)
(0.131683 0 0)
(0.131764 0 0)
(0.131678 0 0)
(0.131765 0 0)
(0.131674 0 0)
(0.131766 0 0)
(0.131669 0 0)
(0.131766 0 0)
(0.131664 0 0)
(0.131766 0 0)
(0.131659 0 0)
(0.131766 0 0)
(0.131653 0 0)
(0.131765 0 0)
(0.131648 0 0)
(0.131765 0 0)
(0.131642 0 0)
(0.131764 0 0)
(0.131637 0 0)
(0.131762 0 0)
(0.131631 0 0)
(0.131761 0 0)
(0.131626 0 0)
(0.131759 0 0)
(0.13162 0 0)
(0.131757 0 0)
(0.131615 0 0)
(0.131755 0 0)
(0.13161 0 0)
(0.131752 0 0)
(0.131605 0 0)
(0.13175 0 0)
(0.1316 0 0)
(0.131747 0 0)
(0.131596 0 0)
(0.131744 0 0)
(0.131593 0 0)
(0.131741 0 0)
(0.13159 0 0)
(0.131739 0 0)
(0.131588 0 0)
(0.131736 0 0)
(0.131586 0 0)
(0.131734 0 0)
(0.131586 0 0)
(0.131732 0 0)
(0.131586 0 0)
(0.131731 0 0)
(0.131588 0 0)
(0.131731 0 0)
(0.131591 0 0)
(0.131731 0 0)
(0.131595 0 0)
(0.131732 0 0)
(0.131601 0 0)
(0.131735 0 0)
(0.131609 0 0)
(0.131739 0 0)
(0.131619 0 0)
(0.131745 0 0)
(0.131631 0 0)
(0.131752 0 0)
(0.131644 0 0)
(0.131762 0 0)
(0.131659 0 0)
(0.131776 0 0)
(0.131675 0 0)
(0.131796 0 0)
(0.131686 0 0)
(0.131829 0 0)
(0.131688 0 0)
(0.131882 0 0)
(0.131675 0 0)
(0.13196 0 0)
(0.131656 0 0)
(0.132048 0 0)
(0.131671 0 0)
(0.132114 0 0)
(0.13177 0 0)
(0.132148 0 0)
(0.131946 0 0)
(0.132207 0 0)
(0.132124 0 0)
(0.132316 0 0)
(0.132277 0 0)
(0.132439 0 0)
(0.132405 0 0)
(0.132547 0 0)
(0.132508 0 0)
(0.132631 0 0)
(0.132588 0 0)
(0.132694 0 0)
(0.132652 0 0)
(0.132745 0 0)
(0.132705 0 0)
(0.132788 0 0)
(0.132754 0 0)
(0.13283 0 0)
(0.132803 0 0)
(0.132873 0 0)
(0.132853 0 0)
(0.132917 0 0)
(0.132904 0 0)
(0.132964 0 0)
(0.132958 0 0)
(0.133013 0 0)
(0.133013 0 0)
(0.133065 0 0)
(0.13307 0 0)
(0.133119 0 0)
(0.133129 0 0)
(0.133174 0 0)
(0.133189 0 0)
(0.133232 0 0)
(0.13325 0 0)
(0.13329 0 0)
(0.133313 0 0)
(0.13335 0 0)
(0.133376 0 0)
(0.133412 0 0)
(0.13344 0 0)
(0.133473 0 0)
(0.133504 0 0)
(0.133536 0 0)
(0.133568 0 0)
(0.133598 0 0)
(0.133632 0 0)
(0.133661 0 0)
(0.133696 0 0)
(0.133723 0 0)
(0.133759 0 0)
(0.133785 0 0)
(0.133821 0 0)
(0.133846 0 0)
(0.133882 0 0)
(0.133906 0 0)
(0.133942 0 0)
(0.133964 0 0)
(0.134 0 0)
(0.134021 0 0)
(0.134056 0 0)
(0.134077 0 0)
(0.134111 0 0)
(0.13413 0 0)
(0.134163 0 0)
(0.134181 0 0)
(0.134214 0 0)
(0.13423 0 0)
(0.134261 0 0)
(0.134277 0 0)
(0.134306 0 0)
(0.13432 0 0)
(0.134348 0 0)
(0.134361 0 0)
(0.134387 0 0)
(0.134398 0 0)
(0.134422 0 0)
(0.134433 0 0)
(0.134455 0 0)
(0.134464 0 0)
(0.134484 0 0)
(0.134491 0 0)
(0.134509 0 0)
(0.134515 0 0)
(0.134531 0 0)
(0.134534 0 0)
(0.134549 0 0)
(0.134549 0 0)
(0.134563 0 0)
(0.13456 0 0)
(0.134574 0 0)
(0.134566 0 0)
(0.13458 0 0)
(0.134569 0 0)
(0.134581 0 0)
(0.13457 0 0)
(0.134577 0 0)
(0.134567 0 0)
(0.134571 0 0)
(0.134564 0 0)
(0.134568 0 0)
(0.134563 0 0)
(0.134567 0 0)
(0.134559 0 0)
(0.134546 0 0)
(0.134504 0 0)
(0.134443 0 0)
(0.134349 0 0)
(0.13425 0 0)
(0.134143 0 0)
(0.134055 0 0)
(0.133977 0 0)
(0.133923 0 0)
(0.133877 0 0)
(0.133848 0 0)
(0.13382 0 0)
(0.133802 0 0)
(0.133782 0 0)
(0.133766 0 0)
(0.133748 0 0)
(0.133732 0 0)
(0.133713 0 0)
(0.133696 0 0)
(0.133675 0 0)
(0.133657 0 0)
(0.133635 0 0)
(0.133615 0 0)
(0.133593 0 0)
(0.133571 0 0)
(0.133547 0 0)
(0.133524 0 0)
(0.133499 0 0)
(0.133475 0 0)
(0.133449 0 0)
(0.133424 0 0)
(0.133397 0 0)
(0.133371 0 0)
(0.133343 0 0)
(0.133316 0 0)
(0.133288 0 0)
(0.13326 0 0)
(0.133231 0 0)
(0.133202 0 0)
(0.133173 0 0)
(0.133144 0 0)
(0.133115 0 0)
(0.133085 0 0)
(0.133056 0 0)
(0.133026 0 0)
(0.132996 0 0)
(0.132967 0 0)
(0.132937 0 0)
(0.132907 0 0)
(0.132878 0 0)
(0.132848 0 0)
(0.132819 0 0)
(0.13279 0 0)
(0.132761 0 0)
(0.132732 0 0)
(0.132704 0 0)
(0.132675 0 0)
(0.132647 0 0)
(0.13262 0 0)
(0.132592 0 0)
(0.132565 0 0)
(0.132539 0 0)
(0.132513 0 0)
(0.132487 0 0)
(0.132461 0 0)
(0.132436 0 0)
(0.132412 0 0)
(0.132388 0 0)
(0.132364 0 0)
(0.132341 0 0)
(0.132318 0 0)
(0.132296 0 0)
(0.132275 0 0)
(0.132254 0 0)
(0.132233 0 0)
(0.132213 0 0)
(0.132193 0 0)
(0.132174 0 0)
(0.132156 0 0)
(0.132138 0 0)
(0.13212 0 0)
(0.132103 0 0)
(0.132087 0 0)
(0.132071 0 0)
(0.132056 0 0)
(0.132041 0 0)
(0.132027 0 0)
(0.132013 0 0)
(0.131999 0 0)
(0.131986 0 0)
(0.131974 0 0)
(0.131962 0 0)
(0.131951 0 0)
(0.13194 0 0)
(0.131929 0 0)
(0.131919 0 0)
(0.131909 0 0)
(0.1319 0 0)
(0.131891 0 0)
(0.131882 0 0)
(0.131874 0 0)
(0.131867 0 0)
(0.131859 0 0)
(0.131852 0 0)
(0.131845 0 0)
(0.131839 0 0)
(0.131833 0 0)
(0.131827 0 0)
(0.131822 0 0)
(0.131816 0 0)
(0.131812 0 0)
(0.131807 0 0)
(0.131802 0 0)
(0.131798 0 0)
(0.131794 0 0)
(0.131791 0 0)
(0.131787 0 0)
(0.131784 0 0)
(0.131781 0 0)
(0.131778 0 0)
(0.131775 0 0)
(0.131772 0 0)
(0.13177 0 0)
(0.131768 0 0)
(0.131766 0 0)
(0.131764 0 0)
(0.131762 0 0)
(0.13176 0 0)
(0.131758 0 0)
(0.131757 0 0)
(0.131755 0 0)
(0.131754 0 0)
(0.131753 0 0)
(0.131752 0 0)
(0.131751 0 0)
(0.13175 0 0)
(0.131749 0 0)
(0.131748 0 0)
(0.131747 0 0)
(0.131746 0 0)
(0.131746 0 0)
(0.131745 0 0)
(0.131744 0 0)
(0.131744 0 0)
(0.131743 0 0)
(0.131743 0 0)
(0.131742 0 0)
(0.131742 0 0)
(0.131742 0 0)
(0.131741 0 0)
(0.131741 0 0)
(0.131741 0 0)
(0.131741 0 0)
(0.13174 0 0)
(0.13174 0 0)
(0.13174 0 0)
(0.13174 0 0)
(0.13174 0 0)
(0.131739 0 0)
(0.131739 0 0)
(0.131739 0 0)
(0.131739 0 0)
(0.131739 0 0)
(0.131739 0 0)
(0.131739 0 0)
(0.131739 0 0)
(0.131739 0 0)
(0.131739 0 0)
(0.131738 0 0)
(0.131738 0 0)
(0.131738 0 0)
(0.131738 0 0)
(0.131738 0 0)
(0.131738 0 0)
(0.131738 0 0)
(0.131738 0 0)
(0.131738 0 0)
(0.131738 0 0)
(0.131738 0 0)
(0.131738 0 0)
(0.131738 0 0)
(0.131738 0 0)
(0.131738 0 0)
(0.131738 0 0)
(0.131738 0 0)
(0.131738 0 0)
(0.131738 0 0)
(0.131738 0 0)
(0.131738 0 0)
(0.131738 0 0)
(0.131738 0 0)
(0.131738 0 0)
(0.131738 0 0)
(0.131738 0 0)
(0.131738 0 0)
(0.131738 0 0)
(0.131738 0 0)
(0.131738 0 0)
(0.131738 0 0)
(0.131738 0 0)
(0.131738 0 0)
(0.131738 0 0)
(0.131738 0 0)
(0.131738 0 0)
(0.131738 0 0)
(0.131738 0 0)
(0.131738 0 0)
(0.131738 0 0)
(0.131738 0 0)
(0.131738 0 0)
(0.131738 0 0)
(0.131738 0 0)
(0.131738 0 0)
(0.131738 0 0)
(0.131738 0 0)
(0.131738 0 0)
(0.131738 0 0)
(0.131738 0 0)
(0.131738 0 0)
(0.131738 0 0)
(0.131738 0 0)
(0.131738 0 0)
(0.131738 0 0)
(0.131738 0 0)
(0.131738 0 0)
(0.131738 0 0)
(0.131738 0 0)
(0.131738 0 0)
(0.131738 0 0)
(0.131738 0 0)
(0.131738 0 0)
(0.131738 0 0)
(0.131738 0 0)
(0.131738 0 0)
(0.131738 0 0)
(0.131738 0 0)
(0.131738 0 0)
(0.131738 0 0)
(0.131738 0 0)
(0.131738 0 0)
(0.131738 0 0)
(0.131738 0 0)
(0.131738 0 0)
(0.131738 0 0)
(0.131738 0 0)
(0.131738 0 0)
(0.131738 0 0)
(0.131738 0 0)
(0.131738 0 0)
(0.131738 0 0)
(0.131738 0 0)
(0.131738 0 0)
(0.131738 0 0)
(0.131738 0 0)
(0.131738 0 0)
(0.131738 0 0)
(0.131738 0 0)
(0.131738 0 0)
(0.131738 0 0)
(0.131738 0 0)
(0.131738 0 0)
(0.131738 0 0)
(0.131738 0 0)
(0.131738 0 0)
(0.131738 0 0)
(0.131738 0 0)
(0.131738 0 0)
(0.131738 0 0)
(0.131738 0 0)
(0.131738 0 0)
(0.131738 0 0)
(0.131738 0 0)
(0.131738 0 0)
(0.131738 0 0)
(0.131738 0 0)
(0.131738 0 0)
(0.131738 0 0)
(0.131738 0 0)
(0.131738 0 0)
(0.131738 0 0)
(0.131738 0 0)
(0.131738 0 0)
(0.131738 0 0)
(0.131738 0 0)
(0.131738 0 0)
(0.131738 0 0)
(0.131738 0 0)
(0.131738 0 0)
(0.131738 0 0)
(0.131738 0 0)
(0.131738 0 0)
(0.131738 0 0)
(0.131738 0 0)
(0.131738 0 0)
(0.131738 0 0)
(0.131738 0 0)
(0.131738 0 0)
(0.131738 0 0)
(0.131738 0 0)
(0.131738 0 0)
(0.131738 0 0)
(0.131738 0 0)
(0.131738 0 0)
(0.131738 0 0)
(0.131738 0 0)
(0.131738 0 0)
(0.131738 0 0)
(0.131738 0 0)
(0.131738 0 0)
(0.131738 0 0)
(0.131738 0 0)
(0.131738 0 0)
(0.131738 0 0)
(0.131738 0 0)
(0.131738 0 0)
(0.131738 0 0)
(0.131738 0 0)
(0.131738 0 0)
(0.131738 0 0)
(0.131738 0 0)
(0.131738 0 0)
(0.131738 0 0)
(0.131738 0 0)
(0.131738 0 0)
(0.131738 0 0)
(0.131738 0 0)
(0.131738 0 0)
(0.131738 0 0)
(0.131738 0 0)
(0.131738 0 0)
(0.131738 0 0)
(0.131738 0 0)
(0.131738 0 0)
(0.131738 0 0)
(0.131738 0 0)
(0.131738 0 0)
(0.131738 0 0)
(0.131738 0 0)
(0.131738 0 0)
(0.131738 0 0)
(0.131738 0 0)
(0.131738 0 0)
(0.131738 0 0)
(0.131738 0 0)
(0.131738 0 0)
(0.131738 0 0)
(0.131738 0 0)
(0.131738 0 0)
(0.131738 0 0)
(0.131738 0 0)
(0.131738 0 0)
(0.131738 0 0)
(0.131738 0 0)
(0.131738 0 0)
(0.131738 0 0)
(0.131738 0 0)
(0.131738 0 0)
(0.131738 0 0)
(0.131738 0 0)
(0.131738 0 0)
(0.131738 0 0)
(0.131738 0 0)
(0.131738 0 0)
(0.131738 0 0)
(0.131738 0 0)
(0.131738 0 0)
(0.131738 0 0)
(0.131738 0 0)
(0.131738 0 0)
(0.131738 0 0)
(0.131738 0 0)
(0.131738 0 0)
(0.131738 0 0)
(0.131738 0 0)
(0.131738 0 0)
(0.131738 0 0)
(0.131738 0 0)
(0.131738 0 0)
(0.131738 0 0)
(0.131738 0 0)
(0.131738 0 0)
(0.131738 0 0)
(0.131738 0 0)
(0.131738 0 0)
(0.131738 0 0)
(0.131738 0 0)
(0.131738 0 0)
(0.131738 0 0)
(0.131738 0 0)
(0.131738 0 0)
(0.131738 0 0)
(0.131738 0 0)
(0.131738 0 0)
(0.131738 0 0)
(0.131738 0 0)
(0.131738 0 0)
(0.131738 0 0)
(0.131738 0 0)
(0.131738 0 0)
(0.131738 0 0)
(0.131738 0 0)
(0.131738 0 0)
(0.131738 0 0)
(0.131738 0 0)
(0.131738 0 0)
(0.131738 0 0)
(0.131738 0 0)
(0.131738 0 0)
(0.131738 0 0)
(0.131738 0 0)
(0.131738 0 0)
(0.131738 0 0)
(0.131738 0 0)
(0.131738 0 0)
(0.131738 0 0)
(0.131738 0 0)
(0.131738 0 0)
(0.131738 0 0)
(0.131738 0 0)
(0.131738 0 0)
(0.131738 0 0)
(0.131738 0 0)
(0.131738 0 0)
(0.131738 0 0)
(0.131738 0 0)
(0.131738 0 0)
(0.131738 0 0)
(0.131738 0 0)
(0.131738 0 0)
(0.131738 0 0)
(0.131738 0 0)
(0.131738 0 0)
(0.131738 0 0)
(0.131738 0 0)
(0.131738 0 0)
(0.131738 0 0)
(0.131738 0 0)
(0.131738 0 0)
(0.131738 0 0)
(0.131738 0 0)
(0.131738 0 0)
(0.131738 0 0)
(0.131738 0 0)
(0.131738 0 0)
(0.131738 0 0)
(0.131738 0 0)
(0.131738 0 0)
(0.131738 0 0)
(0.131738 0 0)
(0.131738 0 0)
(0.131738 0 0)
(0.131738 0 0)
(0.131738 0 0)
(0.131738 0 0)
(0.131738 0 0)
(0.131738 0 0)
(0.131738 0 0)
(0.131738 0 0)
(0.131738 0 0)
(0.131738 0 0)
(0.131738 0 0)
(0.131738 0 0)
(0.131738 0 0)
(0.131738 0 0)
(0.131738 0 0)
(0.131738 0 0)
(0.131738 0 0)
(0.131738 0 0)
(0.131738 0 0)
(0.131738 0 0)
(0.131738 0 0)
(0.131738 0 0)
(0.131738 0 0)
(0.131738 0 0)
(0.131738 0 0)
(0.131738 0 0)
(0.131738 0 0)
(0.131738 0 0)
(0.131738 0 0)
(0.131738 0 0)
(0.131738 0 0)
(0.131738 0 0)
(0.131738 0 0)
(0.131738 0 0)
(0.131738 0 0)
(0.131738 0 0)
(0.131738 0 0)
(0.131738 0 0)
(0.131738 0 0)
(0.131738 0 0)
(0.131738 0 0)
(0.131738 0 0)
(0.131738 0 0)
(0.131738 0 0)
(0.131738 0 0)
(0.131738 0 0)
(0.131738 0 0)
(0.131738 0 0)
(0.131738 0 0)
(0.131738 0 0)
(0.131738 0 0)
(0.131738 0 0)
(0.131738 0 0)
(0.131738 0 0)
(0.131738 0 0)
(0.131738 0 0)
(0.131738 0 0)
(0.131738 0 0)
(0.131738 0 0)
(0.131738 0 0)
(0.131738 0 0)
(0.131738 0 0)
(0.131738 0 0)
(0.131738 0 0)
(0.131738 0 0)
(0.131738 0 0)
(0.131738 0 0)
(0.131738 0 0)
(0.131738 0 0)
(0.131738 0 0)
(0.131738 0 0)
(0.131738 0 0)
(0.131738 0 0)
(0.131738 0 0)
(0.131738 0 0)
(0.131738 0 0)
(0.131738 0 0)
(0.131738 0 0)
(0.131738 0 0)
(0.131738 0 0)
(0.131738 0 0)
(0.131738 0 0)
(0.131738 0 0)
(0.131738 0 0)
(0.131738 0 0)
(0.131738 0 0)
(0.131738 0 0)
(0.131738 0 0)
(0.131738 0 0)
(0.131738 0 0)
(0.131738 0 0)
(0.131738 0 0)
(0.131738 0 0)
(0.131738 0 0)
(0.131738 0 0)
(0.131738 0 0)
(0.131738 0 0)
(0.131738 0 0)
(0.131738 0 0)
(0.131738 0 0)
(0.131738 0 0)
(0.131738 0 0)
(0.131738 0 0)
(0.131738 0 0)
(0.131738 0 0)
(0.131738 0 0)
(0.131738 0 0)
(0.131738 0 0)
(0.131738 0 0)
(0.131738 0 0)
(0.131738 0 0)
(0.131738 0 0)
(0.131738 0 0)
(0.131738 0 0)
(0.131738 0 0)
(0.131738 0 0)
(0.131738 0 0)
(0.131738 0 0)
(0.131738 0 0)
(0.131738 0 0)
(0.131738 0 0)
(0.131738 0 0)
(0.131738 0 0)
(0.131738 0 0)
(0.131738 0 0)
(0.131738 0 0)
(0.131738 0 0)
(0.131738 0 0)
(0.131738 0 0)
(0.131738 0 0)
(0.131738 0 0)
(0.131738 0 0)
(0.131738 0 0)
(0.131738 0 0)
(0.131738 0 0)
(0.131738 0 0)
(0.131738 0 0)
(0.131738 0 0)
(0.131738 0 0)
(0.131738 0 0)
(0.131738 0 0)
(0.131738 0 0)
(0.131738 0 0)
(0.131738 0 0)
(0.131738 0 0)
(0.131738 0 0)
(0.131738 0 0)
(0.131738 0 0)
(0.131738 0 0)
(0.131738 0 0)
(0.131738 0 0)
(0.131738 0 0)
(0.131738 0 0)
(0.131738 0 0)
(0.131738 0 0)
(0.131738 0 0)
(0.131738 0 0)
(0.131738 0 0)
(0.131738 0 0)
(0.131738 0 0)
(0.131738 0 0)
(0.131738 0 0)
(0.131738 0 0)
(0.131738 0 0)
(0.131738 0 0)
(0.131738 0 0)
(0.131738 0 0)
(0.131738 0 0)
(0.131738 0 0)
(0.131738 0 0)
(0.131738 0 0)
(0.131738 0 0)
(0.131738 0 0)
(0.131738 0 0)
(0.131738 0 0)
(0.131738 0 0)
(0.131738 0 0)
(0.131738 0 0)
(0.131738 0 0)
(0.131738 0 0)
(0.131738 0 0)
(0.131738 0 0)
(0.131738 0 0)
(0.131738 0 0)
(0.131738 0 0)
(0.131738 0 0)
(0.131738 0 0)
(0.131738 0 0)
(0.131738 0 0)
(0.131738 0 0)
(0.131738 0 0)
(0.131738 0 0)
(0.131738 0 0)
(0.131738 0 0)
(0.131738 0 0)
(0.131738 0 0)
(0.131738 0 0)
(0.131738 0 0)
(0.131738 0 0)
(0.131738 0 0)
(0.131738 0 0)
(0.131738 0 0)
(0.131738 0 0)
(0.131738 0 0)
(0.131738 0 0)
(0.131738 0 0)
(0.131738 0 0)
(0.131738 0 0)
(0.131738 0 0)
(0.131738 0 0)
(0.131738 0 0)
(0.131738 0 0)
(0.131738 0 0)
(0.131738 0 0)
(0.131738 0 0)
(0.131738 0 0)
(0.131738 0 0)
(0.131738 0 0)
(0.131738 0 0)
(0.131738 0 0)
(0.131738 0 0)
(0.131738 0 0)
(0.131738 0 0)
(0.131738 0 0)
(0.131738 0 0)
(0.131738 0 0)
(0.131738 0 0)
(0.131738 0 0)
(0.131738 0 0)
(0.131738 0 0)
(0.131738 0 0)
(0.131738 0 0)
(0.131738 0 0)
(0.131738 0 0)
(0.131738 0 0)
(0.131738 0 0)
(0.131738 0 0)
(0.131738 0 0)
(0.131738 0 0)
(0.131738 0 0)
(0.131738 0 0)
(0.131738 0 0)
(0.131738 0 0)
(0.131738 0 0)
(0.131738 0 0)
(0.131738 0 0)
(0.131738 0 0)
(0.131738 0 0)
(0.131738 0 0)
(0.131738 0 0)
(0.131738 0 0)
(0.131738 0 0)
(0.131738 0 0)
(0.131738 0 0)
(0.131738 0 0)
(0.131738 0 0)
(0.131738 0 0)
(0.131738 0 0)
(0.131738 0 0)
(0.131738 0 0)
(0.131738 0 0)
(0.131738 0 0)
(0.131738 0 0)
(0.131738 0 0)
(0.131738 0 0)
(0.131738 0 0)
(0.131738 0 0)
(0.131738 0 0)
(0.131738 0 0)
(0.131738 0 0)
(0.131738 0 0)
(0.131738 0 0)
(0.131738 0 0)
(0.131738 0 0)
(0.131738 0 0)
(0.131738 0 0)
(0.131738 0 0)
(0.131738 0 0)
(0.131738 0 0)
(0.131738 0 0)
(0.131738 0 0)
(0.131738 0 0)
(0.131738 0 0)
(0.131738 0 0)
(0.131738 0 0)
(0.131738 0 0)
(0.131738 0 0)
(0.131738 0 0)
(0.131738 0 0)
(0.131738 0 0)
(0.131738 0 0)
(0.131738 0 0)
(0.131738 0 0)
(0.131738 0 0)
(0.131737 0 0)
(0.131739 0 0)
(0.131737 0 0)
(0.131739 0 0)
(0.131737 0 0)
(0.131739 0 0)
(0.131737 0 0)
(0.131739 0 0)
(0.131737 0 0)
(0.131739 0 0)
(0.131737 0 0)
(0.131739 0 0)
(0.131736 0 0)
(0.13174 0 0)
(0.131736 0 0)
(0.13174 0 0)
(0.131736 0 0)
(0.13174 0 0)
(0.131735 0 0)
(0.13174 0 0)
(0.131735 0 0)
(0.131741 0 0)
(0.131735 0 0)
(0.131741 0 0)
(0.131734 0 0)
(0.131742 0 0)
(0.131733 0 0)
(0.131742 0 0)
(0.131733 0 0)
(0.131743 0 0)
(0.131732 0 0)
(0.131743 0 0)
(0.131731 0 0)
(0.131744 0 0)
(0.13173 0 0)
(0.131745 0 0)
(0.131729 0 0)
(0.131745 0 0)
(0.131728 0 0)
(0.131746 0 0)
(0.131727 0 0)
(0.131747 0 0)
(0.131725 0 0)
(0.131748 0 0)
(0.131724 0 0)
(0.131749 0 0)
(0.131722 0 0)
(0.13175 0 0)
(0.13172 0 0)
(0.131751 0 0)
(0.131718 0 0)
(0.131752 0 0)
(0.131716 0 0)
)
;

boundaryField
{
    topWall
    {
        type            empty;
    }
    bottomWall
    {
        type            empty;
    }
    leftAndRight_half1
    {
        type            cyclic;
    }
    leftAndRight_half0
    {
        type            cyclic;
    }
    frontAndBack
    {
        type            empty;
    }
}


// ************************************************************************* //
