/*--------------------------------*- C++ -*----------------------------------*\
  =========                 |
  \\      /  F ield         | OpenFOAM: The Open Source CFD Toolbox
   \\    /   O peration     | Website:  https://openfoam.org
    \\  /    A nd           | Version:  9
     \\/     M anipulation  |
\*---------------------------------------------------------------------------*/
FoamFile
{
    format      ascii;
    class       volScalarField;
    location    "0.5";
    object      f_0;
}
// * * * * * * * * * * * * * * * * * * * * * * * * * * * * * * * * * * * * * //

dimensions      [1 -3 0 0 0 0 0];

internalField   nonuniform List<scalar> 
1000
(
666.667
666.667
666.667
666.667
666.667
666.667
666.667
666.667
666.667
666.667
666.667
666.667
666.667
666.667
666.667
666.667
666.667
666.667
666.667
666.667
666.667
666.667
666.667
666.667
666.667
666.667
666.667
666.667
666.667
666.667
666.667
666.667
666.667
666.667
666.667
666.667
666.667
666.667
666.667
666.667
666.667
666.667
666.667
666.667
666.667
666.667
666.667
666.667
666.667
666.667
666.667
666.667
666.667
666.667
666.667
666.667
666.667
666.667
666.667
666.667
666.667
666.667
666.667
666.667
666.667
666.667
666.667
666.667
666.667
666.667
666.667
666.667
666.667
666.667
666.667
666.667
666.667
666.667
666.667
666.667
666.667
666.667
666.667
666.667
666.667
666.667
666.667
666.667
666.667
666.667
666.667
666.667
666.667
666.667
666.667
666.667
666.667
666.667
666.667
666.667
666.667
666.667
666.667
666.667
666.667
666.667
666.667
666.667
666.667
666.667
666.667
666.667
666.667
666.667
666.667
666.667
666.667
666.667
666.667
666.667
666.667
666.667
666.667
666.667
666.667
666.667
666.667
666.667
666.667
666.667
666.667
666.667
666.667
666.667
666.667
666.667
666.667
666.667
666.667
666.667
666.667
666.667
666.667
666.667
666.667
666.667
666.667
666.667
666.667
666.667
666.667
666.667
666.667
666.667
666.667
666.667
666.667
666.667
666.667
666.667
666.667
666.667
666.667
666.667
666.667
666.667
666.667
666.667
666.667
666.667
666.667
666.667
666.667
666.667
666.667
666.667
666.667
666.667
666.667
666.667
666.667
666.667
666.667
666.667
666.667
666.667
666.667
666.667
666.667
666.667
666.667
666.667
666.667
666.667
666.667
666.667
666.667
666.667
666.667
666.667
666.666
666.666
666.666
666.666
666.666
666.666
666.666
666.666
666.666
666.666
666.666
666.666
666.666
666.666
666.666
666.666
666.666
666.666
666.666
666.666
666.666
666.666
666.666
666.666
666.666
666.666
666.666
666.666
666.666
666.666
666.666
666.666
666.666
666.666
666.666
666.666
666.666
666.666
666.666
666.666
666.666
666.666
666.665
666.665
666.665
666.665
666.665
666.665
666.665
666.665
666.665
666.665
666.665
666.665
666.665
666.665
666.665
666.665
666.664
666.664
666.664
666.664
666.664
666.664
666.664
666.664
666.664
666.664
666.663
666.663
666.663
666.663
666.663
666.663
666.663
666.663
666.662
666.662
666.662
666.662
666.662
666.662
666.661
666.661
666.661
666.661
666.661
666.661
666.66
666.66
666.66
666.66
666.66
666.659
666.659
666.659
666.659
666.658
666.658
666.658
666.658
666.657
666.657
666.657
666.657
666.656
666.656
666.656
666.655
666.655
666.655
666.654
666.654
666.654
666.653
666.653
666.653
666.652
666.652
666.652
666.651
666.651
666.65
666.65
666.65
666.649
666.649
666.648
666.648
666.647
666.647
666.647
666.646
666.646
666.645
666.645
666.644
666.644
666.643
666.643
666.642
666.642
666.641
666.641
666.64
666.64
666.639
666.638
666.638
666.637
666.637
666.636
666.636
666.635
666.634
666.634
666.633
666.633
666.632
666.631
666.631
666.63
666.63
666.629
666.628
666.628
666.627
666.626
666.626
666.625
666.624
666.624
666.623
666.622
666.622
666.621
666.62
666.62
666.619
666.618
666.618
666.617
666.616
666.615
666.615
666.614
666.613
666.613
666.612
666.611
666.61
666.61
666.609
666.608
666.608
666.607
666.606
666.605
666.605
666.604
666.603
666.602
666.602
666.601
666.6
666.6
666.599
666.598
666.597
666.597
666.596
666.595
666.595
666.594
666.593
666.592
666.592
666.591
666.59
666.59
666.589
666.588
666.587
666.587
666.586
666.585
666.585
666.584
666.583
666.583
666.582
666.581
666.581
666.58
666.579
666.579
666.578
666.577
666.577
666.576
666.575
666.575
666.574
666.573
666.573
666.572
666.571
666.571
666.57
666.569
666.569
666.568
666.568
666.567
666.566
666.566
666.565
666.565
666.564
666.563
666.563
666.562
666.562
666.561
666.561
666.56
666.559
666.559
666.558
666.558
666.557
666.557
666.556
666.556
666.555
666.555
666.554
666.554
666.553
666.553
666.552
666.552
666.551
666.551
666.55
666.55
666.549
666.549
666.548
666.548
666.547
666.547
666.546
666.546
666.545
666.545
666.544
666.544
666.544
666.543
666.543
666.542
666.542
666.542
666.541
666.541
666.54
666.54
666.54
666.539
666.539
666.538
666.538
666.538
666.537
666.537
666.537
666.536
666.536
666.535
666.535
666.535
666.534
666.534
666.534
666.533
666.533
666.533
666.532
666.532
666.532
666.532
666.531
666.531
666.531
666.53
666.53
666.53
666.529
666.529
666.529
666.529
666.528
666.528
666.528
666.528
666.527
666.527
666.527
666.527
666.526
666.526
666.526
666.526
666.525
666.525
666.525
666.525
666.524
666.524
666.524
666.524
666.524
666.523
666.523
666.523
666.523
666.523
666.522
666.522
666.522
666.522
666.522
666.522
666.521
666.521
666.521
666.521
666.521
666.521
666.521
666.521
666.52
666.52
666.52
666.52
666.52
666.52
666.52
666.52
666.52
666.52
666.52
666.519
666.519
666.519
666.519
666.519
666.519
666.519
666.519
666.519
666.519
666.519
666.519
666.519
666.519
666.519
666.519
666.52
666.52
666.52
666.52
666.52
666.52
666.52
666.52
666.521
666.521
666.521
666.521
666.522
666.522
666.522
666.522
666.523
666.523
666.524
666.524
666.524
666.525
666.525
666.526
666.526
666.527
666.528
666.528
666.529
666.53
666.53
666.531
666.532
666.533
666.534
666.535
666.536
666.537
666.538
666.54
666.541
666.542
666.544
666.545
666.547
666.549
666.55
666.552
666.554
666.556
666.559
666.561
666.563
666.566
666.569
666.572
666.575
666.578
666.581
666.584
666.588
666.592
666.596
666.6
666.604
666.609
666.614
666.619
666.624
666.63
666.636
666.642
666.648
666.655
666.661
666.669
666.676
666.684
666.692
666.701
666.71
666.719
666.728
666.738
666.749
666.759
666.77
666.782
666.794
666.806
666.818
666.831
666.845
666.858
666.872
666.886
666.901
666.916
666.931
666.946
666.961
666.977
666.993
667.008
667.024
667.04
667.056
667.071
667.087
667.102
667.117
667.131
667.145
667.159
667.172
667.184
667.196
667.207
667.217
667.226
667.235
667.243
667.249
667.255
667.259
667.263
667.265
667.267
667.267
667.266
667.264
667.261
667.258
667.253
667.247
667.24
667.232
667.224
667.215
667.205
667.194
667.183
667.172
667.16
667.147
667.134
667.121
667.108
667.094
667.081
667.067
667.054
667.04
667.026
667.013
667
666.987
666.974
666.961
666.949
666.937
666.925
666.913
666.902
666.891
666.881
666.871
666.861
666.851
666.842
666.834
666.825
666.817
666.809
666.802
666.795
666.788
666.781
666.775
666.769
666.764
666.758
666.753
666.748
666.744
666.739
666.735
666.731
666.728
666.724
666.721
666.717
666.714
666.712
666.709
666.706
666.704
666.702
666.7
666.698
666.696
666.694
666.692
666.691
666.689
666.688
666.686
666.685
666.684
666.683
666.682
666.681
666.68
666.679
666.678
666.678
666.677
666.676
666.676
666.675
666.674
666.674
666.674
666.673
666.673
666.672
666.672
666.672
666.671
666.671
666.671
666.67
666.67
666.67
666.67
666.669
666.669
666.669
666.669
666.669
666.669
666.668
666.668
666.668
666.668
666.668
666.668
666.668
666.668
666.668
666.668
666.668
666.667
666.667
666.667
666.667
666.667
666.667
666.667
666.667
666.667
666.667
666.667
666.667
666.667
666.667
666.667
666.667
666.667
666.667
666.667
666.667
666.667
666.667
666.667
666.667
666.667
666.667
666.667
666.667
666.667
666.667
666.667
666.667
666.667
666.667
666.667
666.667
666.667
666.667
666.667
666.667
666.667
666.667
666.667
666.667
666.667
666.667
666.667
666.667
666.667
666.667
666.667
666.667
666.667
666.667
666.667
666.667
666.667
666.667
666.667
666.667
666.667
666.667
666.667
666.667
666.667
666.667
666.667
666.667
666.667
666.667
666.667
666.667
666.667
666.667
666.667
666.667
666.667
666.667
666.667
666.667
666.667
666.667
666.667
666.667
666.667
666.667
666.667
666.667
666.667
666.667
666.667
666.667
666.667
666.667
666.667
666.667
666.667
666.667
666.667
666.667
666.667
666.667
666.667
666.667
666.667
666.667
666.667
666.667
666.667
666.667
666.667
666.667
666.667
666.667
666.667
666.667
666.667
666.667
666.667
666.667
666.667
666.667
666.667
666.667
666.667
666.667
666.667
666.667
666.667
666.667
666.667
666.667
666.667
666.667
666.667
666.667
666.667
666.667
666.667
)
;

boundaryField
{
    topWall
    {
        type            empty;
    }
    bottomWall
    {
        type            empty;
    }
    leftAndRight_half1
    {
        type            cyclic;
    }
    leftAndRight_half0
    {
        type            cyclic;
    }
    frontAndBack
    {
        type            empty;
    }
}


// ************************************************************************* //
