/*--------------------------------*- C++ -*----------------------------------*\
  =========                 |
  \\      /  F ield         | OpenFOAM: The Open Source CFD Toolbox
   \\    /   O peration     | Website:  https://openfoam.org
    \\  /    A nd           | Version:  9
     \\/     M anipulation  |
\*---------------------------------------------------------------------------*/
FoamFile
{
    format      ascii;
    class       volScalarField;
    location    "0.5";
    object      f_1;
}
// * * * * * * * * * * * * * * * * * * * * * * * * * * * * * * * * * * * * * //

dimensions      [1 -3 0 0 0 0 0];

internalField   nonuniform List<scalar> 
1000
(
168.881
168.881
168.881
168.881
168.881
168.881
168.881
168.881
168.881
168.881
168.881
168.881
168.881
168.881
168.881
168.881
168.881
168.881
168.881
168.881
168.881
168.881
168.881
168.881
168.881
168.881
168.881
168.881
168.881
168.881
168.881
168.881
168.881
168.881
168.881
168.881
168.881
168.881
168.881
168.881
168.881
168.881
168.881
168.881
168.881
168.881
168.881
168.881
168.881
168.881
168.881
168.881
168.881
168.881
168.881
168.881
168.881
168.881
168.881
168.881
168.881
168.881
168.881
168.881
168.881
168.881
168.881
168.881
168.881
168.881
168.881
168.881
168.881
168.881
168.881
168.881
168.881
168.881
168.881
168.881
168.881
168.881
168.881
168.881
168.881
168.881
168.881
168.881
168.881
168.881
168.881
168.881
168.881
168.881
168.881
168.881
168.881
168.881
168.881
168.881
168.881
168.881
168.881
168.881
168.881
168.881
168.881
168.881
168.881
168.881
168.881
168.881
168.881
168.881
168.881
168.881
168.881
168.881
168.881
168.881
168.881
168.881
168.881
168.881
168.881
168.881
168.881
168.881
168.881
168.881
168.881
168.881
168.881
168.881
168.881
168.881
168.881
168.881
168.881
168.881
168.881
168.881
168.881
168.881
168.881
168.881
168.881
168.881
168.881
168.881
168.881
168.881
168.881
168.881
168.881
168.881
168.881
168.881
168.881
168.881
168.881
168.881
168.881
168.881
168.881
168.881
168.881
168.881
168.881
168.881
168.881
168.881
168.882
168.882
168.882
168.882
168.882
168.882
168.882
168.882
168.882
168.882
168.882
168.882
168.882
168.882
168.882
168.882
168.882
168.882
168.882
168.882
168.882
168.882
168.882
168.882
168.882
168.883
168.883
168.883
168.883
168.883
168.883
168.883
168.883
168.883
168.883
168.883
168.884
168.884
168.884
168.884
168.884
168.884
168.884
168.885
168.885
168.885
168.885
168.885
168.886
168.886
168.886
168.886
168.887
168.887
168.887
168.887
168.888
168.888
168.888
168.889
168.889
168.889
168.89
168.89
168.891
168.891
168.892
168.892
168.893
168.893
168.894
168.894
168.895
168.895
168.896
168.897
168.898
168.898
168.899
168.9
168.901
168.902
168.902
168.903
168.904
168.905
168.906
168.908
168.909
168.91
168.911
168.912
168.914
168.915
168.916
168.918
168.919
168.921
168.923
168.924
168.926
168.928
168.93
168.932
168.934
168.936
168.938
168.94
168.943
168.945
168.948
168.95
168.953
168.956
168.958
168.961
168.964
168.967
168.971
168.974
168.977
168.981
168.985
168.988
168.992
168.996
169
169.004
169.009
169.013
169.018
169.023
169.027
169.033
169.038
169.043
169.048
169.054
169.06
169.066
169.072
169.078
169.085
169.091
169.098
169.105
169.112
169.119
169.127
169.134
169.142
169.15
169.159
169.167
169.176
169.185
169.194
169.203
169.213
169.223
169.233
169.243
169.253
169.264
169.275
169.286
169.298
169.309
169.321
169.334
169.346
169.359
169.372
169.385
169.399
169.412
169.427
169.441
169.456
169.471
169.486
169.501
169.517
169.533
169.55
169.566
169.584
169.601
169.619
169.637
169.655
169.674
169.692
169.712
169.731
169.751
169.772
169.792
169.813
169.834
169.856
169.878
169.9
169.923
169.946
169.969
169.993
170.017
170.042
170.066
170.092
170.117
170.143
170.169
170.196
170.223
170.25
170.278
170.306
170.334
170.363
170.392
170.422
170.452
170.482
170.513
170.544
170.575
170.607
170.639
170.672
170.704
170.738
170.771
170.806
170.84
170.875
170.91
170.946
170.981
171.018
171.054
171.092
171.129
171.167
171.205
171.244
171.283
171.322
171.362
171.402
171.442
171.483
171.524
171.566
171.608
171.65
171.693
171.736
171.779
171.823
171.867
171.911
171.956
172.001
172.047
172.093
172.139
172.186
172.233
172.28
172.328
172.376
172.424
172.473
172.522
172.571
172.621
172.671
172.721
172.772
172.823
172.875
172.927
172.979
173.031
173.084
173.137
173.19
173.244
173.298
173.352
173.407
173.462
173.517
173.573
173.629
173.685
173.742
173.799
173.856
173.913
173.971
174.029
174.087
174.146
174.205
174.264
174.324
174.383
174.443
174.504
174.564
174.625
174.686
174.748
174.81
174.872
174.934
174.997
175.059
175.122
175.186
175.249
175.313
175.377
175.442
175.506
175.571
175.636
175.702
175.767
175.833
175.899
175.966
176.032
176.099
176.166
176.234
176.301
176.369
176.437
176.505
176.574
176.642
176.711
176.78
176.85
176.919
176.989
177.059
177.129
177.2
177.27
177.341
177.412
177.483
177.555
177.627
177.698
177.77
177.843
177.915
177.988
178.061
178.134
178.207
178.28
178.354
178.428
178.501
178.576
178.65
178.724
178.799
178.874
178.949
179.024
179.099
179.175
179.25
179.326
179.402
179.478
179.555
179.631
179.708
179.785
179.862
179.939
180.016
180.093
180.171
180.248
180.326
180.404
180.482
180.56
180.639
180.717
180.796
180.875
180.954
181.033
181.112
181.191
181.27
181.35
181.429
181.509
181.589
181.669
181.749
181.829
181.909
181.989
182.07
182.15
182.231
182.311
182.392
182.473
182.554
182.635
182.716
182.797
182.878
182.959
183.041
183.122
183.203
183.285
183.366
183.448
183.529
183.611
183.692
183.774
183.855
183.937
184.018
184.1
184.181
184.263
184.344
184.425
184.507
184.588
184.669
184.75
184.831
184.912
184.993
185.073
185.154
185.234
185.315
185.395
185.474
185.554
185.634
185.713
185.792
185.87
185.949
186.027
186.104
186.182
186.259
186.335
186.412
186.487
186.563
186.637
186.711
186.785
186.858
186.931
187.002
187.073
187.143
187.213
187.281
187.349
187.416
187.482
187.546
187.61
187.672
187.733
187.793
187.852
187.909
187.965
188.019
188.071
188.121
188.17
188.217
188.261
188.304
188.344
188.382
188.417
188.45
188.48
188.507
188.531
188.552
188.57
188.584
188.595
188.602
188.604
188.603
188.598
188.588
188.573
188.553
188.529
188.499
188.463
188.422
188.376
188.323
188.263
188.198
188.125
188.046
187.96
187.866
187.765
187.656
187.54
187.415
187.282
187.141
186.992
186.834
186.668
186.493
186.31
186.117
185.917
185.707
185.489
185.263
185.028
184.786
184.535
184.277
184.011
183.739
183.459
183.173
182.882
182.584
182.282
181.975
181.664
181.35
181.032
180.712
180.391
180.068
179.744
179.42
179.097
178.775
178.454
178.136
177.821
177.508
177.2
176.895
176.595
176.301
176.011
175.727
175.45
175.179
174.914
174.656
174.405
174.161
173.924
173.695
173.473
173.258
173.05
172.85
172.657
172.472
172.293
172.122
171.958
171.8
171.649
171.504
171.366
171.234
171.108
170.988
170.873
170.764
170.66
170.561
170.467
170.377
170.292
170.212
170.136
170.063
169.995
169.93
169.868
169.81
169.755
169.703
169.654
169.607
169.564
169.522
169.483
169.447
169.412
169.379
169.348
169.319
169.292
169.267
169.242
169.22
169.198
169.178
169.159
169.142
169.125
169.109
169.095
169.081
169.068
169.056
169.044
169.034
169.024
169.014
169.006
168.997
168.99
168.983
168.976
168.97
168.964
168.958
168.953
168.948
168.944
168.939
168.935
168.932
168.928
168.925
168.922
168.919
168.917
168.914
168.912
168.91
168.908
168.906
168.904
168.903
168.901
168.9
168.898
168.897
168.896
168.895
168.894
168.893
168.892
168.891
168.891
168.89
168.889
168.889
168.888
168.888
168.887
168.887
168.886
168.886
168.886
168.885
168.885
168.885
168.885
168.884
168.884
168.884
168.884
168.883
168.883
168.883
168.883
168.883
168.883
168.883
168.883
168.882
168.882
168.882
168.882
168.882
168.882
168.882
168.882
168.882
168.882
168.882
168.882
168.882
168.882
168.882
168.882
168.882
168.882
168.881
168.881
168.881
168.881
168.881
168.881
168.881
168.881
168.881
168.881
168.881
168.881
168.881
168.881
168.881
168.881
168.881
168.881
168.881
168.881
168.881
168.881
168.881
168.881
168.881
168.881
168.881
168.881
168.881
168.881
168.881
168.881
168.881
168.881
168.881
168.881
168.881
168.881
168.881
168.881
168.881
168.881
168.881
168.881
168.881
168.881
168.881
168.881
168.881
168.881
168.881
168.881
168.881
168.881
168.881
168.881
168.881
168.881
168.881
168.881
168.881
168.881
168.881
168.881
168.881
168.881
168.881
168.881
168.881
168.881
168.881
168.881
168.881
168.881
168.881
168.881
168.881
168.881
168.881
168.881
168.881
168.881
168.881
168.881
168.881
168.881
168.881
168.881
168.881
168.881
168.881
168.881
168.881
168.881
168.881
168.881
168.881
168.881
168.881
168.881
)
;

boundaryField
{
    topWall
    {
        type            empty;
    }
    bottomWall
    {
        type            empty;
    }
    leftAndRight_half1
    {
        type            cyclic;
    }
    leftAndRight_half0
    {
        type            cyclic;
    }
    frontAndBack
    {
        type            empty;
    }
}


// ************************************************************************* //
