/*--------------------------------*- C++ -*----------------------------------*\
  =========                 |
  \\      /  F ield         | OpenFOAM: The Open Source CFD Toolbox
   \\    /   O peration     | Website:  https://openfoam.org
    \\  /    A nd           | Version:  9
     \\/     M anipulation  |
\*---------------------------------------------------------------------------*/
FoamFile
{
    format      ascii;
    class       volScalarField;
    location    "0.5";
    object      f_2;
}
// * * * * * * * * * * * * * * * * * * * * * * * * * * * * * * * * * * * * * //

dimensions      [1 -3 0 0 0 0 0];

internalField   nonuniform List<scalar> 
1000
(
164.481
164.481
164.481
164.481
164.481
164.481
164.481
164.481
164.481
164.481
164.481
164.481
164.481
164.481
164.481
164.481
164.481
164.481
164.481
164.481
164.481
164.481
164.481
164.481
164.481
164.481
164.481
164.481
164.481
164.481
164.481
164.481
164.481
164.481
164.481
164.481
164.481
164.481
164.481
164.481
164.481
164.481
164.481
164.481
164.481
164.481
164.481
164.481
164.481
164.481
164.481
164.481
164.481
164.481
164.481
164.481
164.481
164.481
164.481
164.481
164.481
164.481
164.481
164.481
164.481
164.481
164.481
164.481
164.481
164.481
164.481
164.481
164.481
164.481
164.481
164.481
164.481
164.481
164.481
164.481
164.481
164.481
164.481
164.481
164.481
164.481
164.481
164.481
164.481
164.481
164.481
164.481
164.481
164.481
164.481
164.481
164.481
164.481
164.481
164.481
164.481
164.481
164.481
164.481
164.481
164.481
164.481
164.481
164.481
164.481
164.481
164.481
164.481
164.481
164.481
164.481
164.481
164.481
164.481
164.481
164.481
164.481
164.481
164.481
164.481
164.481
164.481
164.481
164.481
164.481
164.481
164.481
164.481
164.481
164.481
164.481
164.481
164.481
164.481
164.481
164.481
164.481
164.481
164.481
164.481
164.481
164.481
164.481
164.481
164.481
164.481
164.481
164.481
164.481
164.481
164.481
164.481
164.481
164.481
164.481
164.481
164.481
164.481
164.481
164.481
164.481
164.481
164.481
164.481
164.481
164.481
164.481
164.481
164.481
164.481
164.481
164.481
164.481
164.481
164.481
164.481
164.481
164.481
164.48
164.48
164.48
164.48
164.48
164.48
164.48
164.48
164.48
164.48
164.48
164.48
164.48
164.48
164.48
164.48
164.48
164.479
164.479
164.479
164.479
164.479
164.479
164.479
164.479
164.479
164.478
164.478
164.478
164.478
164.478
164.478
164.477
164.477
164.477
164.477
164.477
164.476
164.476
164.476
164.476
164.475
164.475
164.475
164.474
164.474
164.474
164.473
164.473
164.473
164.472
164.472
164.471
164.471
164.47
164.47
164.469
164.469
164.468
164.468
164.467
164.466
164.466
164.465
164.464
164.463
164.463
164.462
164.461
164.46
164.459
164.458
164.457
164.456
164.455
164.454
164.453
164.451
164.45
164.449
164.447
164.446
164.445
164.443
164.441
164.44
164.438
164.436
164.435
164.433
164.431
164.429
164.427
164.424
164.422
164.42
164.418
164.415
164.413
164.41
164.407
164.404
164.401
164.398
164.395
164.392
164.389
164.386
164.382
164.378
164.375
164.371
164.367
164.363
164.359
164.354
164.35
164.345
164.341
164.336
164.331
164.326
164.321
164.315
164.31
164.304
164.298
164.292
164.286
164.28
164.273
164.266
164.26
164.253
164.245
164.238
164.23
164.223
164.215
164.206
164.198
164.19
164.181
164.172
164.163
164.153
164.144
164.134
164.124
164.113
164.103
164.092
164.081
164.07
164.058
164.047
164.035
164.022
164.01
163.997
163.984
163.971
163.957
163.944
163.93
163.915
163.901
163.886
163.87
163.855
163.839
163.823
163.807
163.79
163.773
163.756
163.738
163.721
163.702
163.684
163.665
163.646
163.627
163.607
163.587
163.566
163.546
163.525
163.503
163.482
163.46
163.437
163.415
163.392
163.368
163.345
163.321
163.296
163.272
163.247
163.221
163.196
163.17
163.143
163.116
163.089
163.062
163.034
163.006
162.978
162.949
162.92
162.89
162.86
162.83
162.799
162.769
162.737
162.706
162.674
162.641
162.609
162.576
162.542
162.509
162.475
162.44
162.406
162.371
162.335
162.3
162.263
162.227
162.19
162.153
162.116
162.078
162.04
162.001
161.963
161.924
161.884
161.844
161.804
161.764
161.723
161.682
161.641
161.599
161.557
161.515
161.472
161.429
161.386
161.342
161.299
161.254
161.21
161.165
161.12
161.075
161.029
160.983
160.937
160.89
160.843
160.796
160.749
160.701
160.653
160.605
160.556
160.508
160.458
160.409
160.359
160.31
160.259
160.209
160.158
160.107
160.056
160.005
159.953
159.901
159.849
159.797
159.744
159.691
159.638
159.584
159.531
159.477
159.423
159.369
159.314
159.259
159.204
159.149
159.094
159.038
158.982
158.926
158.87
158.813
158.757
158.7
158.643
158.585
158.528
158.47
158.412
158.354
158.296
158.238
158.179
158.12
158.061
158.002
157.943
157.884
157.824
157.764
157.704
157.644
157.584
157.523
157.463
157.402
157.341
157.28
157.218
157.157
157.095
157.034
156.972
156.91
156.848
156.786
156.723
156.661
156.598
156.535
156.472
156.409
156.346
156.283
156.219
156.156
156.092
156.028
155.965
155.901
155.836
155.772
155.708
155.643
155.579
155.514
155.45
155.385
155.32
155.255
155.19
155.124
155.059
154.994
154.928
154.863
154.797
154.731
154.665
154.6
154.534
154.468
154.401
154.335
154.269
154.203
154.136
154.07
154.003
153.937
153.87
153.803
153.737
153.67
153.603
153.536
153.469
153.402
153.335
153.268
153.201
153.134
153.067
152.999
152.932
152.865
152.797
152.73
152.663
152.595
152.528
152.461
152.393
152.326
152.258
152.191
152.123
152.056
151.989
151.921
151.854
151.786
151.719
151.652
151.584
151.517
151.45
151.383
151.315
151.248
151.181
151.114
151.047
150.98
150.914
150.847
150.78
150.714
150.647
150.581
150.514
150.448
150.382
150.316
150.25
150.185
150.119
150.054
149.989
149.924
149.859
149.795
149.73
149.666
149.602
149.539
149.475
149.412
149.35
149.287
149.225
149.163
149.102
149.041
148.98
148.92
148.86
148.801
148.742
148.684
148.626
148.569
148.512
148.456
148.401
148.346
148.292
148.239
148.187
148.136
148.085
148.035
147.987
147.939
147.893
147.847
147.803
147.76
147.719
147.678
147.64
147.602
147.567
147.533
147.501
147.47
147.442
147.415
147.391
147.369
147.349
147.332
147.317
147.304
147.295
147.289
147.285
147.285
147.288
147.294
147.304
147.318
147.335
147.357
147.383
147.413
147.448
147.487
147.532
147.581
147.636
147.696
147.761
147.832
147.909
147.993
148.082
148.178
148.28
148.389
148.504
148.627
148.756
148.893
149.037
149.187
149.346
149.511
149.684
149.864
150.051
150.245
150.446
150.654
150.869
151.09
151.318
151.551
151.791
152.036
152.286
152.541
152.8
153.064
153.331
153.601
153.874
154.15
154.427
154.705
154.984
155.263
155.543
155.821
156.098
156.374
156.647
156.918
157.186
157.451
157.711
157.968
158.22
158.467
158.709
158.946
159.177
159.403
159.622
159.836
160.043
160.244
160.439
160.627
160.809
160.985
161.155
161.318
161.475
161.625
161.77
161.909
162.042
162.169
162.291
162.408
162.519
162.625
162.726
162.822
162.914
163.001
163.084
163.163
163.238
163.309
163.377
163.44
163.501
163.558
163.613
163.664
163.712
163.758
163.802
163.843
163.881
163.918
163.952
163.984
164.015
164.044
164.071
164.096
164.12
164.143
164.164
164.184
164.203
164.221
164.237
164.253
164.268
164.281
164.294
164.306
164.318
164.328
164.338
164.348
164.356
164.365
164.372
164.38
164.386
164.393
164.399
164.404
164.409
164.414
164.419
164.423
164.427
164.431
164.434
164.437
164.44
164.443
164.446
164.448
164.45
164.452
164.454
164.456
164.458
164.46
164.461
164.463
164.464
164.465
164.466
164.467
164.468
164.469
164.47
164.471
164.472
164.472
164.473
164.474
164.474
164.475
164.475
164.475
164.476
164.476
164.477
164.477
164.477
164.478
164.478
164.478
164.478
164.479
164.479
164.479
164.479
164.479
164.479
164.48
164.48
164.48
164.48
164.48
164.48
164.48
164.48
164.48
164.48
164.48
164.48
164.481
164.481
164.481
164.481
164.481
164.481
164.481
164.481
164.481
164.481
164.481
164.481
164.481
164.481
164.481
164.481
164.481
164.481
164.481
164.481
164.481
164.481
164.481
164.481
164.481
164.481
164.481
164.481
164.481
164.481
164.481
164.481
164.481
164.481
164.481
164.481
164.481
164.481
164.481
164.481
164.481
164.481
164.481
164.481
164.481
164.481
164.481
164.481
164.481
164.481
164.481
164.481
164.481
164.481
164.481
164.481
164.481
164.481
164.481
164.481
164.481
164.481
164.481
164.481
164.481
164.481
164.481
164.481
164.481
164.481
164.481
164.481
164.481
164.481
164.481
164.481
164.481
164.481
164.481
164.481
164.481
164.481
164.481
164.481
164.481
164.481
164.481
164.481
164.481
164.481
164.481
164.481
164.481
164.481
164.481
164.481
164.481
164.481
164.481
164.481
164.481
164.481
164.481
164.481
164.481
164.481
164.481
164.481
164.481
164.481
164.481
164.481
164.481
)
;

boundaryField
{
    topWall
    {
        type            empty;
    }
    bottomWall
    {
        type            empty;
    }
    leftAndRight_half1
    {
        type            cyclic;
    }
    leftAndRight_half0
    {
        type            cyclic;
    }
    frontAndBack
    {
        type            empty;
    }
}


// ************************************************************************* //
