/*--------------------------------*- C++ -*----------------------------------*\
  =========                 |
  \\      /  F ield         | OpenFOAM: The Open Source CFD Toolbox
   \\    /   O peration     | Website:  https://openfoam.org
    \\  /    A nd           | Version:  9
     \\/     M anipulation  |
\*---------------------------------------------------------------------------*/
FoamFile
{
    format      ascii;
    class       volScalarField;
    location    "0.5";
    object      p;
}
// * * * * * * * * * * * * * * * * * * * * * * * * * * * * * * * * * * * * * //

dimensions      [1 -1 -2 0 0 0 0];

internalField   nonuniform List<scalar> 
1000
(
100097
100097
100097
100097
100097
100097
100097
100097
100097
100097
100097
100097
100097
100097
100097
100097
100097
100097
100097
100097
100097
100097
100097
100097
100097
100097
100097
100097
100097
100097
100097
100097
100097
100097
100097
100097
100097
100097
100097
100097
100097
100097
100097
100097
100097
100097
100097
100097
100097
100097
100097
100097
100097
100097
100097
100097
100097
100097
100097
100097
100097
100097
100097
100097
100097
100097
100097
100097
100097
100097
100097
100097
100097
100097
100097
100097
100097
100097
100097
100097
100097
100097
100097
100097
100097
100097
100097
100097
100097
100097
100097
100097
100097
100097
100097
100097
100097
100097
100097
100097
100097
100097
100097
100097
100097
100097
100097
100097
100097
100097
100097
100097
100097
100097
100097
100097
100097
100097
100097
100097
100097
100097
100097
100097
100097
100097
100097
100097
100097
100097
100097
100097
100097
100097
100097
100097
100097
100097
100097
100097
100097
100097
100097
100097
100097
100097
100097
100097
100097
100097
100097
100097
100097
100097
100097
100097
100097
100097
100097
100097
100097
100097
100097
100097
100097
100097
100097
100097
100097
100097
100097
100097
100097
100097
100096
100096
100096
100096
100096
100096
100096
100096
100096
100096
100096
100096
100096
100096
100096
100096
100096
100096
100096
100096
100096
100096
100096
100096
100096
100096
100096
100096
100095
100095
100095
100095
100095
100095
100095
100095
100095
100095
100095
100095
100094
100094
100094
100094
100094
100094
100094
100094
100093
100093
100093
100093
100093
100093
100092
100092
100092
100092
100092
100091
100091
100091
100091
100090
100090
100090
100090
100089
100089
100089
100088
100088
100088
100087
100087
100086
100086
100086
100085
100085
100084
100084
100083
100083
100082
100082
100081
100080
100080
100079
100079
100078
100077
100076
100076
100075
100074
100073
100073
100072
100071
100070
100069
100068
100067
100066
100065
100064
100063
100062
100061
100060
100059
100058
100056
100055
100054
100053
100051
100050
100049
100047
100046
100044
100043
100041
100040
100038
100036
100035
100033
100031
100030
100028
100026
100024
100022
100020
100018
100016
100015
100012
100010
100008
100006
100004
100002
99999.7
99997.5
99995.3
99993
99990.7
99988.4
99986
99983.6
99981.2
99978.8
99976.3
99973.9
99971.4
99968.9
99966.3
99963.8
99961.2
99958.6
99956
99953.4
99950.7
99948.1
99945.4
99942.8
99940.1
99937.4
99934.7
99932
99929.3
99926.6
99923.9
99921.2
99918.4
99915.7
99913
99910.3
99907.6
99904.9
99902.3
99899.6
99897
99894.3
99891.7
99889.1
99886.5
99884
99881.4
99878.9
99876.4
99874
99871.6
99869.2
99866.8
99864.5
99862.2
99860
99857.8
99855.7
99853.6
99851.5
99849.5
99847.6
99845.7
99843.9
99842.1
99840.4
99838.8
99837.2
99835.7
99834.3
99832.9
99831.6
99830.4
99829.3
99828.2
99827.3
99826.4
99825.6
99824.9
99824.3
99823.8
99823.4
99823.1
99823
99822.9
99822.9
99823
99823.2
99823.6
99824.1
99824.6
99825.3
99826.2
99827.1
99828.2
99829.4
99830.8
99832.2
99833.9
99835.6
99837.5
99839.5
99841.7
99844
99846.5
99849.1
99851.9
99854.8
99857.9
99861.2
99864.6
99868.2
99871.9
99875.8
99879.9
99884.1
99888.5
99893.1
99897.9
99902.8
99908
99913.3
99918.8
99924.4
99930.3
99936.4
99942.6
99949
99955.7
99962.5
99969.5
99976.7
99984.2
99991.8
99999.6
100008
100016
100024
100033
100042
100051
100060
100070
100080
100089
100100
100110
100121
100131
100143
100154
100165
100177
100189
100201
100214
100226
100239
100252
100266
100279
100293
100307
100322
100336
100351
100366
100382
100397
100413
100429
100445
100462
100479
100496
100513
100531
100549
100567
100585
100604
100623
100642
100661
100681
100701
100721
100741
100762
100783
100804
100826
100848
100870
100892
100914
100937
100960
100984
101007
101031
101056
101080
101105
101130
101155
101181
101207
101233
101259
101286
101313
101340
101367
101395
101423
101452
101480
101509
101538
101568
101598
101628
101658
101689
101719
101751
101782
101814
101846
101878
101911
101944
101977
102010
102044
102078
102112
102147
102182
102217
102252
102288
102324
102361
102397
102434
102471
102509
102547
102585
102623
102662
102700
102740
102779
102819
102859
102899
102940
102981
103022
103064
103106
103148
103190
103233
103276
103319
103363
103407
103451
103495
103540
103585
103630
103676
103722
103768
103814
103861
103908
103955
104003
104051
104099
104147
104196
104245
104294
104344
104394
104444
104494
104545
104596
104647
104699
104751
104803
104855
104908
104961
105014
105067
105121
105175
105229
105284
105339
105394
105449
105504
105560
105616
105673
105729
105786
105843
105900
105958
106015
106073
106131
106190
106248
106307
106366
106425
106485
106544
106604
106664
106724
106784
106844
106905
106965
107026
107087
107148
107209
107270
107331
107392
107453
107514
107575
107636
107697
107758
107818
107879
107940
108000
108060
108119
108179
108238
108297
108355
108413
108470
108526
108582
108638
108692
108746
108798
108850
108901
108950
108998
109045
109090
109134
109175
109215
109253
109289
109323
109354
109382
109408
109431
109450
109466
109479
109488
109493
109494
109491
109483
109470
109453
109430
109402
109369
109330
109285
109234
109177
109114
109045
108969
108887
108799
108704
108603
108495
108382
108262
108137
108006
107869
107727
107581
107430
107275
107115
106953
106787
106619
106448
106275
106101
105926
105751
105575
105400
105225
105051
104879
104708
104539
104373
104209
104048
103890
103736
103585
103437
103294
103154
103018
102887
102759
102636
102516
102401
102290
102183
102080
101981
101886
101795
101708
101625
101545
101468
101396
101326
101260
101196
101136
101079
101024
100972
100923
100876
100832
100790
100750
100712
100677
100643
100611
100580
100552
100525
100499
100475
100452
100431
100410
100391
100373
100356
100340
100325
100311
100298
100285
100273
100262
100252
100242
100233
100224
100216
100208
100201
100194
100188
100182
100177
100171
100166
100162
100158
100154
100150
100146
100143
100140
100137
100134
100132
100129
100127
100125
100123
100121
100120
100118
100117
100115
100114
100113
100112
100111
100110
100109
100108
100107
100107
100106
100105
100105
100104
100104
100103
100103
100102
100102
100101
100101
100101
100101
100100
100100
100100
100100
100099
100099
100099
100099
100099
100099
100098
100098
100098
100098
100098
100098
100098
100098
100098
100098
100098
100097
100097
100097
100097
100097
100097
100097
100097
100097
100097
100097
100097
100097
100097
100097
100097
100097
100097
100097
100097
100097
100097
100097
100097
100097
100097
100097
100097
100097
100097
100097
100097
100097
100097
100097
100097
100097
100097
100097
100097
100097
100097
100097
100097
100097
100097
100097
100097
100097
100097
100097
100097
100097
100097
100097
100097
100097
100097
100097
100097
100097
100097
100097
100097
100097
100097
100097
100097
100097
100097
100097
100097
100097
100097
100097
100097
100097
100097
100097
100097
100097
100097
100097
100097
100097
100097
100097
100097
100097
100097
100097
100097
100097
100097
100097
100097
100097
100097
100097
100097
100097
100097
100097
100097
100097
100097
100097
100097
100097
)
;

boundaryField
{
    topWall
    {
        type            empty;
    }
    bottomWall
    {
        type            empty;
    }
    leftAndRight_half1
    {
        type            cyclic;
    }
    leftAndRight_half0
    {
        type            cyclic;
    }
    frontAndBack
    {
        type            empty;
    }
}


// ************************************************************************* //
