/*--------------------------------*- C++ -*----------------------------------*\
  =========                 |
  \\      /  F ield         | OpenFOAM: The Open Source CFD Toolbox
   \\    /   O peration     | Website:  https://openfoam.org
    \\  /    A nd           | Version:  9
     \\/     M anipulation  |
\*---------------------------------------------------------------------------*/
FoamFile
{
    format      ascii;
    class       volVectorField;
    location    "0.5";
    object      U;
}
// * * * * * * * * * * * * * * * * * * * * * * * * * * * * * * * * * * * * * //

dimensions      [0 1 -1 0 0 0 0];

internalField   nonuniform List<vector> 
1000
(
(0.439989 0 0)
(0.439989 0 0)
(0.439989 0 0)
(0.439989 0 0)
(0.439989 0 0)
(0.439989 0 0)
(0.439989 0 0)
(0.439989 0 0)
(0.439989 0 0)
(0.439989 0 0)
(0.439989 0 0)
(0.439989 0 0)
(0.439989 0 0)
(0.439989 0 0)
(0.439989 0 0)
(0.439989 0 0)
(0.439989 0 0)
(0.439989 0 0)
(0.439989 0 0)
(0.439989 0 0)
(0.439989 0 0)
(0.439989 0 0)
(0.439989 0 0)
(0.439989 0 0)
(0.439989 0 0)
(0.439989 0 0)
(0.439989 0 0)
(0.439989 0 0)
(0.439989 0 0)
(0.439989 0 0)
(0.439989 0 0)
(0.439989 0 0)
(0.439989 0 0)
(0.439989 0 0)
(0.439989 0 0)
(0.439989 0 0)
(0.439989 0 0)
(0.439989 0 0)
(0.439989 0 0)
(0.439989 0 0)
(0.439989 0 0)
(0.439989 0 0)
(0.439989 0 0)
(0.439989 0 0)
(0.439989 0 0)
(0.439989 0 0)
(0.439989 0 0)
(0.439989 0 0)
(0.439989 0 0)
(0.439989 0 0)
(0.439989 0 0)
(0.439989 0 0)
(0.439989 0 0)
(0.439989 0 0)
(0.439989 0 0)
(0.439989 0 0)
(0.439989 0 0)
(0.439989 0 0)
(0.439989 0 0)
(0.439989 0 0)
(0.439989 0 0)
(0.439989 0 0)
(0.439989 0 0)
(0.439989 0 0)
(0.439989 0 0)
(0.439989 0 0)
(0.439989 0 0)
(0.439989 0 0)
(0.439989 0 0)
(0.439989 0 0)
(0.439989 0 0)
(0.439989 0 0)
(0.439989 0 0)
(0.439989 0 0)
(0.439989 0 0)
(0.439989 0 0)
(0.439989 0 0)
(0.439989 0 0)
(0.439989 0 0)
(0.439989 0 0)
(0.439989 0 0)
(0.439989 0 0)
(0.439989 0 0)
(0.439989 0 0)
(0.439989 0 0)
(0.439989 0 0)
(0.439989 0 0)
(0.439989 0 0)
(0.439989 0 0)
(0.439989 0 0)
(0.439989 0 0)
(0.439989 0 0)
(0.439989 0 0)
(0.439989 0 0)
(0.439989 0 0)
(0.439989 0 0)
(0.439989 0 0)
(0.439989 0 0)
(0.439989 0 0)
(0.439989 0 0)
(0.43999 0 0)
(0.43999 0 0)
(0.43999 0 0)
(0.43999 0 0)
(0.43999 0 0)
(0.43999 0 0)
(0.43999 0 0)
(0.43999 0 0)
(0.43999 0 0)
(0.43999 0 0)
(0.43999 0 0)
(0.43999 0 0)
(0.43999 0 0)
(0.43999 0 0)
(0.439991 0 0)
(0.439991 0 0)
(0.439991 0 0)
(0.439991 0 0)
(0.439991 0 0)
(0.439991 0 0)
(0.439991 0 0)
(0.439992 0 0)
(0.439992 0 0)
(0.439992 0 0)
(0.439992 0 0)
(0.439992 0 0)
(0.439993 0 0)
(0.439993 0 0)
(0.439993 0 0)
(0.439993 0 0)
(0.439994 0 0)
(0.439994 0 0)
(0.439994 0 0)
(0.439995 0 0)
(0.439995 0 0)
(0.439996 0 0)
(0.439996 0 0)
(0.439997 0 0)
(0.439997 0 0)
(0.439998 0 0)
(0.439998 0 0)
(0.439999 0 0)
(0.44 0 0)
(0.44 0 0)
(0.440001 0 0)
(0.440002 0 0)
(0.440003 0 0)
(0.440004 0 0)
(0.440005 0 0)
(0.440006 0 0)
(0.440007 0 0)
(0.440008 0 0)
(0.440009 0 0)
(0.44001 0 0)
(0.440012 0 0)
(0.440013 0 0)
(0.440015 0 0)
(0.440016 0 0)
(0.440018 0 0)
(0.44002 0 0)
(0.440022 0 0)
(0.440024 0 0)
(0.440026 0 0)
(0.440029 0 0)
(0.440031 0 0)
(0.440034 0 0)
(0.440036 0 0)
(0.440039 0 0)
(0.440042 0 0)
(0.440046 0 0)
(0.440049 0 0)
(0.440053 0 0)
(0.440057 0 0)
(0.440061 0 0)
(0.440065 0 0)
(0.44007 0 0)
(0.440075 0 0)
(0.44008 0 0)
(0.440085 0 0)
(0.440091 0 0)
(0.440097 0 0)
(0.440103 0 0)
(0.44011 0 0)
(0.440117 0 0)
(0.440125 0 0)
(0.440133 0 0)
(0.440141 0 0)
(0.44015 0 0)
(0.440159 0 0)
(0.440169 0 0)
(0.440179 0 0)
(0.44019 0 0)
(0.440201 0 0)
(0.440213 0 0)
(0.440226 0 0)
(0.440239 0 0)
(0.440253 0 0)
(0.440268 0 0)
(0.440283 0 0)
(0.440299 0 0)
(0.440317 0 0)
(0.440335 0 0)
(0.440353 0 0)
(0.440373 0 0)
(0.440394 0 0)
(0.440416 0 0)
(0.440439 0 0)
(0.440463 0 0)
(0.440489 0 0)
(0.440515 0 0)
(0.440543 0 0)
(0.440572 0 0)
(0.440603 0 0)
(0.440635 0 0)
(0.440669 0 0)
(0.440704 0 0)
(0.440741 0 0)
(0.44078 0 0)
(0.440821 0 0)
(0.440864 0 0)
(0.440908 0 0)
(0.440955 0 0)
(0.441004 0 0)
(0.441055 0 0)
(0.441108 0 0)
(0.441164 0 0)
(0.441223 0 0)
(0.441284 0 0)
(0.441348 0 0)
(0.441415 0 0)
(0.441485 0 0)
(0.441558 0 0)
(0.441634 0 0)
(0.441713 0 0)
(0.441796 0 0)
(0.441883 0 0)
(0.441973 0 0)
(0.442068 0 0)
(0.442166 0 0)
(0.442269 0 0)
(0.442376 0 0)
(0.442487 0 0)
(0.442604 0 0)
(0.442725 0 0)
(0.442851 0 0)
(0.442983 0 0)
(0.443119 0 0)
(0.443262 0 0)
(0.44341 0 0)
(0.443565 0 0)
(0.443725 0 0)
(0.443892 0 0)
(0.444066 0 0)
(0.444247 0 0)
(0.444435 0 0)
(0.44463 0 0)
(0.444833 0 0)
(0.445044 0 0)
(0.445263 0 0)
(0.44549 0 0)
(0.445726 0 0)
(0.445971 0 0)
(0.446225 0 0)
(0.446489 0 0)
(0.446763 0 0)
(0.447047 0 0)
(0.447341 0 0)
(0.447646 0 0)
(0.447962 0 0)
(0.44829 0 0)
(0.44863 0 0)
(0.448982 0 0)
(0.449346 0 0)
(0.449723 0 0)
(0.450113 0 0)
(0.450518 0 0)
(0.450936 0 0)
(0.451368 0 0)
(0.451816 0 0)
(0.452278 0 0)
(0.452757 0 0)
(0.453251 0 0)
(0.453762 0 0)
(0.45429 0 0)
(0.454835 0 0)
(0.455399 0 0)
(0.45598 0 0)
(0.45658 0 0)
(0.4572 0 0)
(0.45784 0 0)
(0.458499 0 0)
(0.45918 0 0)
(0.459881 0 0)
(0.460605 0 0)
(0.461351 0 0)
(0.462119 0 0)
(0.462911 0 0)
(0.463727 0 0)
(0.464568 0 0)
(0.465433 0 0)
(0.466324 0 0)
(0.467241 0 0)
(0.468185 0 0)
(0.469156 0 0)
(0.470155 0 0)
(0.471182 0 0)
(0.472239 0 0)
(0.473325 0 0)
(0.474441 0 0)
(0.475588 0 0)
(0.476767 0 0)
(0.477978 0 0)
(0.479221 0 0)
(0.480498 0 0)
(0.481809 0 0)
(0.483154 0 0)
(0.484534 0 0)
(0.485951 0 0)
(0.487403 0 0)
(0.488893 0 0)
(0.490421 0 0)
(0.491987 0 0)
(0.493592 0 0)
(0.495237 0 0)
(0.496922 0 0)
(0.498649 0 0)
(0.500416 0 0)
(0.502227 0 0)
(0.50408 0 0)
(0.505977 0 0)
(0.507917 0 0)
(0.509903 0 0)
(0.511935 0 0)
(0.514012 0 0)
(0.516137 0 0)
(0.518309 0 0)
(0.520529 0 0)
(0.522798 0 0)
(0.525116 0 0)
(0.527484 0 0)
(0.529903 0 0)
(0.532373 0 0)
(0.534895 0 0)
(0.537469 0 0)
(0.540096 0 0)
(0.542777 0 0)
(0.545513 0 0)
(0.548303 0 0)
(0.551148 0 0)
(0.55405 0 0)
(0.557008 0 0)
(0.560024 0 0)
(0.563097 0 0)
(0.566228 0 0)
(0.569418 0 0)
(0.572668 0 0)
(0.575977 0 0)
(0.579347 0 0)
(0.582777 0 0)
(0.586269 0 0)
(0.589823 0 0)
(0.593439 0 0)
(0.597118 0 0)
(0.60086 0 0)
(0.604666 0 0)
(0.608536 0 0)
(0.61247 0 0)
(0.61647 0 0)
(0.620535 0 0)
(0.624666 0 0)
(0.628863 0 0)
(0.633126 0 0)
(0.637457 0 0)
(0.641855 0 0)
(0.64632 0 0)
(0.650854 0 0)
(0.655455 0 0)
(0.660125 0 0)
(0.664865 0 0)
(0.669673 0 0)
(0.674551 0 0)
(0.679498 0 0)
(0.684516 0 0)
(0.689603 0 0)
(0.694761 0 0)
(0.69999 0 0)
(0.705289 0 0)
(0.71066 0 0)
(0.716101 0 0)
(0.721614 0 0)
(0.727199 0 0)
(0.732855 0 0)
(0.738583 0 0)
(0.744382 0 0)
(0.750254 0 0)
(0.756198 0 0)
(0.762214 0 0)
(0.768302 0 0)
(0.774462 0 0)
(0.780695 0 0)
(0.787 0 0)
(0.793377 0 0)
(0.799827 0 0)
(0.806349 0 0)
(0.812943 0 0)
(0.81961 0 0)
(0.826349 0 0)
(0.833161 0 0)
(0.840044 0 0)
(0.847 0 0)
(0.854028 0 0)
(0.861127 0 0)
(0.868299 0 0)
(0.875542 0 0)
(0.882857 0 0)
(0.890244 0 0)
(0.897702 0 0)
(0.905231 0 0)
(0.912831 0 0)
(0.920502 0 0)
(0.928244 0 0)
(0.936057 0 0)
(0.94394 0 0)
(0.951893 0 0)
(0.959916 0 0)
(0.968009 0 0)
(0.976171 0 0)
(0.984403 0 0)
(0.992703 0 0)
(1.00107 0 0)
(1.00951 0 0)
(1.01802 0 0)
(1.02659 0 0)
(1.03523 0 0)
(1.04394 0 0)
(1.05272 0 0)
(1.06157 0 0)
(1.07048 0 0)
(1.07945 0 0)
(1.0885 0 0)
(1.09761 0 0)
(1.10678 0 0)
(1.11602 0 0)
(1.12532 0 0)
(1.13469 0 0)
(1.14412 0 0)
(1.15362 0 0)
(1.16318 0 0)
(1.1728 0 0)
(1.18249 0 0)
(1.19224 0 0)
(1.20205 0 0)
(1.21192 0 0)
(1.22185 0 0)
(1.23184 0 0)
(1.2419 0 0)
(1.25201 0 0)
(1.26219 0 0)
(1.27242 0 0)
(1.28271 0 0)
(1.29307 0 0)
(1.30348 0 0)
(1.31394 0 0)
(1.32447 0 0)
(1.33505 0 0)
(1.34569 0 0)
(1.35638 0 0)
(1.36713 0 0)
(1.37794 0 0)
(1.3888 0 0)
(1.39972 0 0)
(1.41069 0 0)
(1.42171 0 0)
(1.43279 0 0)
(1.44392 0 0)
(1.45511 0 0)
(1.46634 0 0)
(1.47763 0 0)
(1.48897 0 0)
(1.50036 0 0)
(1.5118 0 0)
(1.5233 0 0)
(1.53484 0 0)
(1.54643 0 0)
(1.55807 0 0)
(1.56976 0 0)
(1.5815 0 0)
(1.59328 0 0)
(1.60512 0 0)
(1.617 0 0)
(1.62892 0 0)
(1.6409 0 0)
(1.65292 0 0)
(1.66498 0 0)
(1.67709 0 0)
(1.68924 0 0)
(1.70144 0 0)
(1.71369 0 0)
(1.72597 0 0)
(1.7383 0 0)
(1.75068 0 0)
(1.76309 0 0)
(1.77555 0 0)
(1.78805 0 0)
(1.80059 0 0)
(1.81317 0 0)
(1.82579 0 0)
(1.83845 0 0)
(1.85115 0 0)
(1.86389 0 0)
(1.87667 0 0)
(1.88949 0 0)
(1.90235 0 0)
(1.91524 0 0)
(1.92818 0 0)
(1.94115 0 0)
(1.95415 0 0)
(1.9672 0 0)
(1.98028 0 0)
(1.99339 0 0)
(2.00654 0 0)
(2.01973 0 0)
(2.03295 0 0)
(2.0462 0 0)
(2.05949 0 0)
(2.07281 0 0)
(2.08616 0 0)
(2.09955 0 0)
(2.11297 0 0)
(2.12643 0 0)
(2.13991 0 0)
(2.15343 0 0)
(2.16697 0 0)
(2.18055 0 0)
(2.19416 0 0)
(2.2078 0 0)
(2.22147 0 0)
(2.23517 0 0)
(2.24889 0 0)
(2.26265 0 0)
(2.27643 0 0)
(2.29025 0 0)
(2.30409 0 0)
(2.31796 0 0)
(2.33185 0 0)
(2.34577 0 0)
(2.35972 0 0)
(2.3737 0 0)
(2.3877 0 0)
(2.40172 0 0)
(2.41577 0 0)
(2.42985 0 0)
(2.44395 0 0)
(2.45807 0 0)
(2.47222 0 0)
(2.48639 0 0)
(2.50058 0 0)
(2.5148 0 0)
(2.52904 0 0)
(2.5433 0 0)
(2.55758 0 0)
(2.57189 0 0)
(2.58621 0 0)
(2.60056 0 0)
(2.61492 0 0)
(2.62931 0 0)
(2.64371 0 0)
(2.65814 0 0)
(2.67258 0 0)
(2.68704 0 0)
(2.70152 0 0)
(2.71602 0 0)
(2.73053 0 0)
(2.74506 0 0)
(2.75961 0 0)
(2.77417 0 0)
(2.78875 0 0)
(2.80334 0 0)
(2.81795 0 0)
(2.83257 0 0)
(2.84721 0 0)
(2.86186 0 0)
(2.87652 0 0)
(2.8912 0 0)
(2.90588 0 0)
(2.92058 0 0)
(2.93529 0 0)
(2.95001 0 0)
(2.96474 0 0)
(2.97948 0 0)
(2.99422 0 0)
(3.00898 0 0)
(3.02374 0 0)
(3.03851 0 0)
(3.05328 0 0)
(3.06807 0 0)
(3.08285 0 0)
(3.09764 0 0)
(3.11243 0 0)
(3.12723 0 0)
(3.14203 0 0)
(3.15683 0 0)
(3.17163 0 0)
(3.18643 0 0)
(3.20122 0 0)
(3.21602 0 0)
(3.23081 0 0)
(3.2456 0 0)
(3.26038 0 0)
(3.27516 0 0)
(3.28992 0 0)
(3.30468 0 0)
(3.31943 0 0)
(3.33417 0 0)
(3.3489 0 0)
(3.36361 0 0)
(3.37831 0 0)
(3.39298 0 0)
(3.40765 0 0)
(3.42229 0 0)
(3.43691 0 0)
(3.4515 0 0)
(3.46607 0 0)
(3.48062 0 0)
(3.49513 0 0)
(3.50961 0 0)
(3.52406 0 0)
(3.53848 0 0)
(3.55285 0 0)
(3.56718 0 0)
(3.58147 0 0)
(3.59572 0 0)
(3.60991 0 0)
(3.62406 0 0)
(3.63814 0 0)
(3.65217 0 0)
(3.66614 0 0)
(3.68003 0 0)
(3.69386 0 0)
(3.70762 0 0)
(3.72129 0 0)
(3.73489 0 0)
(3.74839 0 0)
(3.76181 0 0)
(3.77512 0 0)
(3.78834 0 0)
(3.80144 0 0)
(3.81443 0 0)
(3.8273 0 0)
(3.84004 0 0)
(3.85265 0 0)
(3.86511 0 0)
(3.87742 0 0)
(3.88958 0 0)
(3.90157 0 0)
(3.91339 0 0)
(3.92502 0 0)
(3.93646 0 0)
(3.9477 0 0)
(3.95872 0 0)
(3.96952 0 0)
(3.98008 0 0)
(3.99039 0 0)
(4.00044 0 0)
(4.01021 0 0)
(4.0197 0 0)
(4.02888 0 0)
(4.03774 0 0)
(4.04626 0 0)
(4.05444 0 0)
(4.06224 0 0)
(4.06965 0 0)
(4.07666 0 0)
(4.08324 0 0)
(4.08937 0 0)
(4.09504 0 0)
(4.10021 0 0)
(4.10486 0 0)
(4.10898 0 0)
(4.11253 0 0)
(4.11549 0 0)
(4.11783 0 0)
(4.11952 0 0)
(4.12054 0 0)
(4.12085 0 0)
(4.12043 0 0)
(4.11924 0 0)
(4.11725 0 0)
(4.11443 0 0)
(4.11073 0 0)
(4.10614 0 0)
(4.10061 0 0)
(4.0941 0 0)
(4.08658 0 0)
(4.07801 0 0)
(4.06836 0 0)
(4.05759 0 0)
(4.04565 0 0)
(4.03252 0 0)
(4.01815 0 0)
(4.00251 0 0)
(3.98557 0 0)
(3.96728 0 0)
(3.94762 0 0)
(3.92655 0 0)
(3.90404 0 0)
(3.88007 0 0)
(3.85461 0 0)
(3.82763 0 0)
(3.79912 0 0)
(3.76905 0 0)
(3.73742 0 0)
(3.70422 0 0)
(3.66943 0 0)
(3.63306 0 0)
(3.59512 0 0)
(3.55561 0 0)
(3.51455 0 0)
(3.47195 0 0)
(3.42785 0 0)
(3.38228 0 0)
(3.33528 0 0)
(3.28688 0 0)
(3.23715 0 0)
(3.18614 0 0)
(3.13391 0 0)
(3.08053 0 0)
(3.02608 0 0)
(2.97064 0 0)
(2.9143 0 0)
(2.85713 0 0)
(2.79925 0 0)
(2.74074 0 0)
(2.68172 0 0)
(2.62227 0 0)
(2.56252 0 0)
(2.50256 0 0)
(2.4425 0 0)
(2.38246 0 0)
(2.32253 0 0)
(2.26283 0 0)
(2.20346 0 0)
(2.14451 0 0)
(2.08609 0 0)
(2.02828 0 0)
(1.97119 0 0)
(1.91488 0 0)
(1.85945 0 0)
(1.80496 0 0)
(1.75148 0 0)
(1.69908 0 0)
(1.64781 0 0)
(1.59772 0 0)
(1.54885 0 0)
(1.50124 0 0)
(1.45493 0 0)
(1.40993 0 0)
(1.36627 0 0)
(1.32397 0 0)
(1.28302 0 0)
(1.24344 0 0)
(1.20522 0 0)
(1.16836 0 0)
(1.13286 0 0)
(1.09869 0 0)
(1.06584 0 0)
(1.03429 0 0)
(1.00402 0 0)
(0.975005 0 0)
(0.947218 0 0)
(0.92063 0 0)
(0.895212 0 0)
(0.870931 0 0)
(0.847755 0 0)
(0.82565 0 0)
(0.804583 0 0)
(0.784518 0 0)
(0.765423 0 0)
(0.74726 0 0)
(0.729997 0 0)
(0.713599 0 0)
(0.698031 0 0)
(0.683261 0 0)
(0.669254 0 0)
(0.655979 0 0)
(0.643404 0 0)
(0.631498 0 0)
(0.620232 0 0)
(0.609574 0 0)
(0.599498 0 0)
(0.589976 0 0)
(0.580981 0 0)
(0.572488 0 0)
(0.564471 0 0)
(0.556907 0 0)
(0.549773 0 0)
(0.543048 0 0)
(0.536709 0 0)
(0.530737 0 0)
(0.525113 0 0)
(0.519817 0 0)
(0.514833 0 0)
(0.510144 0 0)
(0.505733 0 0)
(0.501585 0 0)
(0.497686 0 0)
(0.494021 0 0)
(0.490578 0 0)
(0.487345 0 0)
(0.484308 0 0)
(0.481458 0 0)
(0.478782 0 0)
(0.476272 0 0)
(0.473917 0 0)
(0.471709 0 0)
(0.469638 0 0)
(0.467697 0 0)
(0.465879 0 0)
(0.464174 0 0)
(0.462578 0 0)
(0.461083 0 0)
(0.459683 0 0)
(0.458373 0 0)
(0.457147 0 0)
(0.455999 0 0)
(0.454926 0 0)
(0.453922 0 0)
(0.452983 0 0)
(0.452105 0 0)
(0.451285 0 0)
(0.450518 0 0)
(0.449801 0 0)
(0.449132 0 0)
(0.448507 0 0)
(0.447923 0 0)
(0.447378 0 0)
(0.44687 0 0)
(0.446395 0 0)
(0.445952 0 0)
(0.445539 0 0)
(0.445153 0 0)
(0.444794 0 0)
(0.444458 0 0)
(0.444146 0 0)
(0.443855 0 0)
(0.443583 0 0)
(0.44333 0 0)
(0.443095 0 0)
(0.442875 0 0)
(0.442671 0 0)
(0.442481 0 0)
(0.442303 0 0)
(0.442139 0 0)
(0.441985 0 0)
(0.441842 0 0)
(0.44171 0 0)
(0.441586 0 0)
(0.441471 0 0)
(0.441364 0 0)
(0.441265 0 0)
(0.441173 0 0)
(0.441087 0 0)
(0.441007 0 0)
(0.440933 0 0)
(0.440864 0 0)
(0.4408 0 0)
(0.440741 0 0)
(0.440686 0 0)
(0.440635 0 0)
(0.440587 0 0)
(0.440543 0 0)
(0.440502 0 0)
(0.440464 0 0)
(0.440429 0 0)
(0.440397 0 0)
(0.440366 0 0)
(0.440338 0 0)
(0.440312 0 0)
(0.440288 0 0)
(0.440266 0 0)
(0.440245 0 0)
(0.440226 0 0)
(0.440208 0 0)
(0.440191 0 0)
(0.440176 0 0)
(0.440162 0 0)
(0.440149 0 0)
(0.440137 0 0)
(0.440126 0 0)
(0.440115 0 0)
(0.440106 0 0)
(0.440097 0 0)
(0.440089 0 0)
(0.440081 0 0)
(0.440074 0 0)
(0.440067 0 0)
(0.440061 0 0)
(0.440056 0 0)
(0.440051 0 0)
(0.440046 0 0)
(0.440042 0 0)
(0.440037 0 0)
(0.440034 0 0)
(0.44003 0 0)
(0.440027 0 0)
(0.440024 0 0)
(0.440021 0 0)
(0.440019 0 0)
(0.440017 0 0)
(0.440014 0 0)
(0.440012 0 0)
(0.440011 0 0)
(0.440009 0 0)
(0.440007 0 0)
(0.440006 0 0)
(0.440005 0 0)
(0.440003 0 0)
(0.440002 0 0)
(0.440001 0 0)
(0.44 0 0)
(0.439999 0 0)
(0.439998 0 0)
(0.439998 0 0)
(0.439997 0 0)
(0.439996 0 0)
(0.439996 0 0)
(0.439995 0 0)
(0.439995 0 0)
(0.439994 0 0)
(0.439994 0 0)
(0.439993 0 0)
(0.439993 0 0)
(0.439993 0 0)
(0.439992 0 0)
(0.439992 0 0)
(0.439992 0 0)
(0.439992 0 0)
(0.439991 0 0)
(0.439991 0 0)
(0.439991 0 0)
(0.439991 0 0)
(0.439991 0 0)
(0.439991 0 0)
(0.43999 0 0)
(0.43999 0 0)
(0.43999 0 0)
(0.43999 0 0)
(0.43999 0 0)
(0.43999 0 0)
(0.43999 0 0)
(0.43999 0 0)
(0.43999 0 0)
(0.43999 0 0)
(0.43999 0 0)
(0.43999 0 0)
(0.439989 0 0)
(0.439989 0 0)
(0.439989 0 0)
(0.439989 0 0)
(0.439989 0 0)
(0.439989 0 0)
(0.439989 0 0)
(0.439989 0 0)
(0.439989 0 0)
(0.439989 0 0)
(0.439989 0 0)
(0.439989 0 0)
(0.439989 0 0)
(0.439989 0 0)
(0.439989 0 0)
(0.439989 0 0)
(0.439989 0 0)
(0.439989 0 0)
(0.439989 0 0)
(0.439989 0 0)
(0.439989 0 0)
(0.439989 0 0)
(0.439989 0 0)
(0.439989 0 0)
(0.439989 0 0)
(0.439989 0 0)
(0.439989 0 0)
(0.439989 0 0)
(0.439989 0 0)
(0.439989 0 0)
(0.439989 0 0)
(0.439989 0 0)
(0.439989 0 0)
(0.439989 0 0)
(0.439989 0 0)
(0.439989 0 0)
(0.439989 0 0)
(0.439989 0 0)
(0.439989 0 0)
(0.439989 0 0)
(0.439989 0 0)
(0.439989 0 0)
(0.439989 0 0)
(0.439989 0 0)
(0.439989 0 0)
)
;

boundaryField
{
    topWall
    {
        type            empty;
    }
    bottomWall
    {
        type            empty;
    }
    leftAndRight_half1
    {
        type            cyclic;
    }
    leftAndRight_half0
    {
        type            cyclic;
    }
    frontAndBack
    {
        type            empty;
    }
}


// ************************************************************************* //
