/*--------------------------------*- C++ -*----------------------------------*\
  =========                 |
  \\      /  F ield         | OpenFOAM: The Open Source CFD Toolbox
   \\    /   O peration     | Website:  https://openfoam.org
    \\  /    A nd           | Version:  9
     \\/     M anipulation  |
\*---------------------------------------------------------------------------*/
FoamFile
{
    format      ascii;
    class       volVectorField;
    location    "0.8";
    object      U;
}
// * * * * * * * * * * * * * * * * * * * * * * * * * * * * * * * * * * * * * //

dimensions      [0 1 -1 0 0 0 0];

internalField   nonuniform List<vector> 
1000
(
(0.131739 0 0)
(0.131737 0 0)
(0.131739 0 0)
(0.131737 0 0)
(0.131739 0 0)
(0.131736 0 0)
(0.13174 0 0)
(0.131736 0 0)
(0.13174 0 0)
(0.131735 0 0)
(0.131741 0 0)
(0.131734 0 0)
(0.131741 0 0)
(0.131733 0 0)
(0.131742 0 0)
(0.131732 0 0)
(0.131743 0 0)
(0.13173 0 0)
(0.131744 0 0)
(0.131728 0 0)
(0.131746 0 0)
(0.131726 0 0)
(0.131747 0 0)
(0.131723 0 0)
(0.131749 0 0)
(0.13172 0 0)
(0.131751 0 0)
(0.131716 0 0)
(0.131753 0 0)
(0.131711 0 0)
(0.131755 0 0)
(0.131706 0 0)
(0.131758 0 0)
(0.131699 0 0)
(0.13176 0 0)
(0.131692 0 0)
(0.131763 0 0)
(0.131684 0 0)
(0.131765 0 0)
(0.131675 0 0)
(0.131767 0 0)
(0.131664 0 0)
(0.131769 0 0)
(0.131653 0 0)
(0.131771 0 0)
(0.13164 0 0)
(0.131771 0 0)
(0.131626 0 0)
(0.131771 0 0)
(0.13161 0 0)
(0.13177 0 0)
(0.131594 0 0)
(0.131767 0 0)
(0.131576 0 0)
(0.131763 0 0)
(0.131557 0 0)
(0.131758 0 0)
(0.131537 0 0)
(0.13175 0 0)
(0.131516 0 0)
(0.131741 0 0)
(0.131494 0 0)
(0.13173 0 0)
(0.131472 0 0)
(0.131716 0 0)
(0.13145 0 0)
(0.131701 0 0)
(0.131427 0 0)
(0.131684 0 0)
(0.131405 0 0)
(0.131665 0 0)
(0.131385 0 0)
(0.131645 0 0)
(0.131365 0 0)
(0.131624 0 0)
(0.131347 0 0)
(0.131602 0 0)
(0.131332 0 0)
(0.131581 0 0)
(0.13132 0 0)
(0.131561 0 0)
(0.131311 0 0)
(0.131544 0 0)
(0.131306 0 0)
(0.13153 0 0)
(0.131303 0 0)
(0.131524 0 0)
(0.1313 0 0)
(0.131533 0 0)
(0.13129 0 0)
(0.131564 0 0)
(0.13127 0 0)
(0.131624 0 0)
(0.131248 0 0)
(0.131699 0 0)
(0.131266 0 0)
(0.131756 0 0)
(0.131371 0 0)
(0.131786 0 0)
(0.131559 0 0)
(0.131847 0 0)
(0.131756 0 0)
(0.131964 0 0)
(0.131932 0 0)
(0.132102 0 0)
(0.132088 0 0)
(0.132232 0 0)
(0.132225 0 0)
(0.132343 0 0)
(0.132345 0 0)
(0.13244 0 0)
(0.132453 0 0)
(0.13253 0 0)
(0.132554 0 0)
(0.132618 0 0)
(0.132655 0 0)
(0.132709 0 0)
(0.132758 0 0)
(0.132805 0 0)
(0.132863 0 0)
(0.132905 0 0)
(0.132972 0 0)
(0.13301 0 0)
(0.133084 0 0)
(0.133118 0 0)
(0.133196 0 0)
(0.133228 0 0)
(0.13331 0 0)
(0.133339 0 0)
(0.133423 0 0)
(0.13345 0 0)
(0.133534 0 0)
(0.133561 0 0)
(0.133643 0 0)
(0.133669 0 0)
(0.133749 0 0)
(0.133774 0 0)
(0.133852 0 0)
(0.133875 0 0)
(0.13395 0 0)
(0.133973 0 0)
(0.134043 0 0)
(0.134065 0 0)
(0.134132 0 0)
(0.134152 0 0)
(0.134214 0 0)
(0.134234 0 0)
(0.134292 0 0)
(0.13431 0 0)
(0.134364 0 0)
(0.134381 0 0)
(0.134431 0 0)
(0.134446 0 0)
(0.134493 0 0)
(0.134507 0 0)
(0.13455 0 0)
(0.134562 0 0)
(0.134602 0 0)
(0.134613 0 0)
(0.13465 0 0)
(0.13466 0 0)
(0.134695 0 0)
(0.134704 0 0)
(0.134736 0 0)
(0.134744 0 0)
(0.134774 0 0)
(0.134782 0 0)
(0.13481 0 0)
(0.134816 0 0)
(0.134843 0 0)
(0.134849 0 0)
(0.134874 0 0)
(0.13488 0 0)
(0.134904 0 0)
(0.134909 0 0)
(0.134932 0 0)
(0.134936 0 0)
(0.134958 0 0)
(0.134962 0 0)
(0.134982 0 0)
(0.134985 0 0)
(0.135004 0 0)
(0.135007 0 0)
(0.135024 0 0)
(0.135025 0 0)
(0.135042 0 0)
(0.135041 0 0)
(0.135056 0 0)
(0.135052 0 0)
(0.135068 0 0)
(0.135059 0 0)
(0.135074 0 0)
(0.135062 0 0)
(0.135075 0 0)
(0.135062 0 0)
(0.135068 0 0)
(0.135057 0 0)
(0.135058 0 0)
(0.135048 0 0)
(0.135049 0 0)
(0.135039 0 0)
(0.135038 0 0)
(0.135024 0 0)
(0.135004 0 0)
(0.134954 0 0)
(0.134882 0 0)
(0.134779 0 0)
(0.134667 0 0)
(0.134549 0 0)
(0.134446 0 0)
(0.134354 0 0)
(0.134281 0 0)
(0.13422 0 0)
(0.134169 0 0)
(0.134123 0 0)
(0.134082 0 0)
(0.134041 0 0)
(0.134 0 0)
(0.133958 0 0)
(0.133916 0 0)
(0.133871 0 0)
(0.133826 0 0)
(0.133779 0 0)
(0.13373 0 0)
(0.133681 0 0)
(0.13363 0 0)
(0.133578 0 0)
(0.133525 0 0)
(0.133472 0 0)
(0.133418 0 0)
(0.133364 0 0)
(0.133308 0 0)
(0.133254 0 0)
(0.133198 0 0)
(0.133144 0 0)
(0.133088 0 0)
(0.133034 0 0)
(0.132979 0 0)
(0.132926 0 0)
(0.132873 0 0)
(0.132821 0 0)
(0.13277 0 0)
(0.13272 0 0)
(0.13267 0 0)
(0.132622 0 0)
(0.132575 0 0)
(0.13253 0 0)
(0.132485 0 0)
(0.132443 0 0)
(0.132401 0 0)
(0.132361 0 0)
(0.132322 0 0)
(0.132286 0 0)
(0.13225 0 0)
(0.132216 0 0)
(0.132184 0 0)
(0.132153 0 0)
(0.132123 0 0)
(0.132096 0 0)
(0.132069 0 0)
(0.132044 0 0)
(0.132021 0 0)
(0.131999 0 0)
(0.131978 0 0)
(0.131958 0 0)
(0.13194 0 0)
(0.131923 0 0)
(0.131907 0 0)
(0.131892 0 0)
(0.131878 0 0)
(0.131866 0 0)
(0.131854 0 0)
(0.131843 0 0)
(0.131833 0 0)
(0.131824 0 0)
(0.131815 0 0)
(0.131807 0 0)
(0.1318 0 0)
(0.131794 0 0)
(0.131788 0 0)
(0.131783 0 0)
(0.131778 0 0)
(0.131773 0 0)
(0.131769 0 0)
(0.131766 0 0)
(0.131763 0 0)
(0.13176 0 0)
(0.131757 0 0)
(0.131755 0 0)
(0.131753 0 0)
(0.131751 0 0)
(0.131749 0 0)
(0.131748 0 0)
(0.131747 0 0)
(0.131745 0 0)
(0.131744 0 0)
(0.131744 0 0)
(0.131743 0 0)
(0.131742 0 0)
(0.131742 0 0)
(0.131741 0 0)
(0.131741 0 0)
(0.13174 0 0)
(0.13174 0 0)
(0.13174 0 0)
(0.131739 0 0)
(0.131739 0 0)
(0.131739 0 0)
(0.131739 0 0)
(0.131739 0 0)
(0.131739 0 0)
(0.131739 0 0)
(0.131738 0 0)
(0.131738 0 0)
(0.131738 0 0)
(0.131738 0 0)
(0.131738 0 0)
(0.131738 0 0)
(0.131738 0 0)
(0.131738 0 0)
(0.131738 0 0)
(0.131738 0 0)
(0.131738 0 0)
(0.131738 0 0)
(0.131738 0 0)
(0.131738 0 0)
(0.131738 0 0)
(0.131738 0 0)
(0.131738 0 0)
(0.131738 0 0)
(0.131738 0 0)
(0.131738 0 0)
(0.131738 0 0)
(0.131738 0 0)
(0.131738 0 0)
(0.131738 0 0)
(0.131738 0 0)
(0.131738 0 0)
(0.131738 0 0)
(0.131738 0 0)
(0.131738 0 0)
(0.131738 0 0)
(0.131738 0 0)
(0.131738 0 0)
(0.131738 0 0)
(0.131738 0 0)
(0.131738 0 0)
(0.131738 0 0)
(0.131738 0 0)
(0.131738 0 0)
(0.131738 0 0)
(0.131738 0 0)
(0.131738 0 0)
(0.131738 0 0)
(0.131738 0 0)
(0.131738 0 0)
(0.131738 0 0)
(0.131738 0 0)
(0.131738 0 0)
(0.131738 0 0)
(0.131738 0 0)
(0.131738 0 0)
(0.131738 0 0)
(0.131738 0 0)
(0.131738 0 0)
(0.131738 0 0)
(0.131738 0 0)
(0.131738 0 0)
(0.131738 0 0)
(0.131738 0 0)
(0.131738 0 0)
(0.131738 0 0)
(0.131738 0 0)
(0.131738 0 0)
(0.131738 0 0)
(0.131738 0 0)
(0.131738 0 0)
(0.131738 0 0)
(0.131738 0 0)
(0.131738 0 0)
(0.131738 0 0)
(0.131738 0 0)
(0.131738 0 0)
(0.131738 0 0)
(0.131738 0 0)
(0.131738 0 0)
(0.131738 0 0)
(0.131738 0 0)
(0.131738 0 0)
(0.131738 0 0)
(0.131738 0 0)
(0.131738 0 0)
(0.131738 0 0)
(0.131738 0 0)
(0.131738 0 0)
(0.131738 0 0)
(0.131738 0 0)
(0.131738 0 0)
(0.131738 0 0)
(0.131738 0 0)
(0.131738 0 0)
(0.131738 0 0)
(0.131738 0 0)
(0.131738 0 0)
(0.131738 0 0)
(0.131738 0 0)
(0.131738 0 0)
(0.131738 0 0)
(0.131738 0 0)
(0.131738 0 0)
(0.131738 0 0)
(0.131738 0 0)
(0.131738 0 0)
(0.131738 0 0)
(0.131738 0 0)
(0.131738 0 0)
(0.131738 0 0)
(0.131738 0 0)
(0.131738 0 0)
(0.131738 0 0)
(0.131738 0 0)
(0.131738 0 0)
(0.131738 0 0)
(0.131738 0 0)
(0.131738 0 0)
(0.131738 0 0)
(0.131738 0 0)
(0.131738 0 0)
(0.131738 0 0)
(0.131738 0 0)
(0.131738 0 0)
(0.131738 0 0)
(0.131738 0 0)
(0.131738 0 0)
(0.131738 0 0)
(0.131738 0 0)
(0.131738 0 0)
(0.131738 0 0)
(0.131738 0 0)
(0.131738 0 0)
(0.131738 0 0)
(0.131738 0 0)
(0.131738 0 0)
(0.131738 0 0)
(0.131738 0 0)
(0.131738 0 0)
(0.131738 0 0)
(0.131738 0 0)
(0.131738 0 0)
(0.131738 0 0)
(0.131738 0 0)
(0.131738 0 0)
(0.131738 0 0)
(0.131738 0 0)
(0.131738 0 0)
(0.131738 0 0)
(0.131738 0 0)
(0.131738 0 0)
(0.131738 0 0)
(0.131738 0 0)
(0.131738 0 0)
(0.131738 0 0)
(0.131738 0 0)
(0.131738 0 0)
(0.131738 0 0)
(0.131738 0 0)
(0.131738 0 0)
(0.131738 0 0)
(0.131738 0 0)
(0.131738 0 0)
(0.131738 0 0)
(0.131738 0 0)
(0.131738 0 0)
(0.131738 0 0)
(0.131738 0 0)
(0.131738 0 0)
(0.131738 0 0)
(0.131738 0 0)
(0.131738 0 0)
(0.131738 0 0)
(0.131738 0 0)
(0.131738 0 0)
(0.131738 0 0)
(0.131738 0 0)
(0.131738 0 0)
(0.131738 0 0)
(0.131738 0 0)
(0.131738 0 0)
(0.131738 0 0)
(0.131738 0 0)
(0.131738 0 0)
(0.131738 0 0)
(0.131738 0 0)
(0.131738 0 0)
(0.131738 0 0)
(0.131738 0 0)
(0.131738 0 0)
(0.131738 0 0)
(0.131738 0 0)
(0.131738 0 0)
(0.131738 0 0)
(0.131738 0 0)
(0.131738 0 0)
(0.131738 0 0)
(0.131738 0 0)
(0.131738 0 0)
(0.131738 0 0)
(0.131738 0 0)
(0.131738 0 0)
(0.131738 0 0)
(0.131738 0 0)
(0.131738 0 0)
(0.131738 0 0)
(0.131738 0 0)
(0.131738 0 0)
(0.131738 0 0)
(0.131738 0 0)
(0.131738 0 0)
(0.131738 0 0)
(0.131738 0 0)
(0.131738 0 0)
(0.131738 0 0)
(0.131738 0 0)
(0.131738 0 0)
(0.131738 0 0)
(0.131738 0 0)
(0.131738 0 0)
(0.131738 0 0)
(0.131738 0 0)
(0.131738 0 0)
(0.131738 0 0)
(0.131738 0 0)
(0.131738 0 0)
(0.131738 0 0)
(0.131738 0 0)
(0.131738 0 0)
(0.131738 0 0)
(0.131738 0 0)
(0.131738 0 0)
(0.131738 0 0)
(0.131738 0 0)
(0.131738 0 0)
(0.131738 0 0)
(0.131738 0 0)
(0.131738 0 0)
(0.131738 0 0)
(0.131738 0 0)
(0.131738 0 0)
(0.131738 0 0)
(0.131738 0 0)
(0.131738 0 0)
(0.131738 0 0)
(0.131738 0 0)
(0.131738 0 0)
(0.131738 0 0)
(0.131738 0 0)
(0.131738 0 0)
(0.131738 0 0)
(0.131738 0 0)
(0.131738 0 0)
(0.131738 0 0)
(0.131738 0 0)
(0.131738 0 0)
(0.131738 0 0)
(0.131738 0 0)
(0.131738 0 0)
(0.131738 0 0)
(0.131738 0 0)
(0.131738 0 0)
(0.131738 0 0)
(0.131738 0 0)
(0.131738 0 0)
(0.131738 0 0)
(0.131738 0 0)
(0.131738 0 0)
(0.131738 0 0)
(0.131738 0 0)
(0.131738 0 0)
(0.131738 0 0)
(0.131738 0 0)
(0.131738 0 0)
(0.131738 0 0)
(0.131738 0 0)
(0.131738 0 0)
(0.131738 0 0)
(0.131738 0 0)
(0.131738 0 0)
(0.131738 0 0)
(0.131738 0 0)
(0.131738 0 0)
(0.131738 0 0)
(0.131738 0 0)
(0.131738 0 0)
(0.131738 0 0)
(0.131738 0 0)
(0.131738 0 0)
(0.131738 0 0)
(0.131738 0 0)
(0.131738 0 0)
(0.131738 0 0)
(0.131738 0 0)
(0.131738 0 0)
(0.131738 0 0)
(0.131738 0 0)
(0.131738 0 0)
(0.131738 0 0)
(0.131738 0 0)
(0.131738 0 0)
(0.131738 0 0)
(0.131738 0 0)
(0.131738 0 0)
(0.131738 0 0)
(0.131738 0 0)
(0.131738 0 0)
(0.131738 0 0)
(0.131738 0 0)
(0.131738 0 0)
(0.131738 0 0)
(0.131738 0 0)
(0.131738 0 0)
(0.131738 0 0)
(0.131738 0 0)
(0.131738 0 0)
(0.131738 0 0)
(0.131738 0 0)
(0.131738 0 0)
(0.131738 0 0)
(0.131738 0 0)
(0.131738 0 0)
(0.131738 0 0)
(0.131738 0 0)
(0.131738 0 0)
(0.131738 0 0)
(0.131738 0 0)
(0.131738 0 0)
(0.131738 0 0)
(0.131738 0 0)
(0.131738 0 0)
(0.131738 0 0)
(0.131738 0 0)
(0.131738 0 0)
(0.131738 0 0)
(0.131738 0 0)
(0.131738 0 0)
(0.131738 0 0)
(0.131738 0 0)
(0.131738 0 0)
(0.131738 0 0)
(0.131738 0 0)
(0.131738 0 0)
(0.131738 0 0)
(0.131738 0 0)
(0.131738 0 0)
(0.131738 0 0)
(0.131738 0 0)
(0.131738 0 0)
(0.131738 0 0)
(0.131738 0 0)
(0.131738 0 0)
(0.131738 0 0)
(0.131738 0 0)
(0.131738 0 0)
(0.131738 0 0)
(0.131738 0 0)
(0.131738 0 0)
(0.131738 0 0)
(0.131738 0 0)
(0.131738 0 0)
(0.131738 0 0)
(0.131738 0 0)
(0.131738 0 0)
(0.131738 0 0)
(0.131738 0 0)
(0.131738 0 0)
(0.131738 0 0)
(0.131738 0 0)
(0.131738 0 0)
(0.131738 0 0)
(0.131738 0 0)
(0.131738 0 0)
(0.131738 0 0)
(0.131738 0 0)
(0.131738 0 0)
(0.131738 0 0)
(0.131738 0 0)
(0.131738 0 0)
(0.131738 0 0)
(0.131738 0 0)
(0.131738 0 0)
(0.131738 0 0)
(0.131738 0 0)
(0.131738 0 0)
(0.131738 0 0)
(0.131738 0 0)
(0.131738 0 0)
(0.131738 0 0)
(0.131738 0 0)
(0.131738 0 0)
(0.131738 0 0)
(0.131738 0 0)
(0.131738 0 0)
(0.131738 0 0)
(0.131738 0 0)
(0.131738 0 0)
(0.131738 0 0)
(0.131738 0 0)
(0.131738 0 0)
(0.131738 0 0)
(0.131738 0 0)
(0.131738 0 0)
(0.131738 0 0)
(0.131738 0 0)
(0.131738 0 0)
(0.131738 0 0)
(0.131738 0 0)
(0.131738 0 0)
(0.131738 0 0)
(0.131738 0 0)
(0.131738 0 0)
(0.131738 0 0)
(0.131738 0 0)
(0.131738 0 0)
(0.131738 0 0)
(0.131738 0 0)
(0.131738 0 0)
(0.131738 0 0)
(0.131738 0 0)
(0.131738 0 0)
(0.131738 0 0)
(0.131738 0 0)
(0.131738 0 0)
(0.131738 0 0)
(0.131738 0 0)
(0.131738 0 0)
(0.131738 0 0)
(0.131738 0 0)
(0.131738 0 0)
(0.131738 0 0)
(0.131738 0 0)
(0.131738 0 0)
(0.131738 0 0)
(0.131738 0 0)
(0.131738 0 0)
(0.131738 0 0)
(0.131738 0 0)
(0.131738 0 0)
(0.131738 0 0)
(0.131738 0 0)
(0.131738 0 0)
(0.131738 0 0)
(0.131738 0 0)
(0.131738 0 0)
(0.131738 0 0)
(0.131738 0 0)
(0.131738 0 0)
(0.131738 0 0)
(0.131738 0 0)
(0.131738 0 0)
(0.131738 0 0)
(0.131738 0 0)
(0.131738 0 0)
(0.131738 0 0)
(0.131738 0 0)
(0.131738 0 0)
(0.131738 0 0)
(0.131738 0 0)
(0.131738 0 0)
(0.131738 0 0)
(0.131738 0 0)
(0.131738 0 0)
(0.131738 0 0)
(0.131738 0 0)
(0.131738 0 0)
(0.131738 0 0)
(0.131738 0 0)
(0.131738 0 0)
(0.131738 0 0)
(0.131738 0 0)
(0.131738 0 0)
(0.131738 0 0)
(0.131738 0 0)
(0.131738 0 0)
(0.131738 0 0)
(0.131738 0 0)
(0.131738 0 0)
(0.131738 0 0)
(0.131738 0 0)
(0.131738 0 0)
(0.131738 0 0)
(0.131738 0 0)
(0.131738 0 0)
(0.131738 0 0)
(0.131738 0 0)
(0.131738 0 0)
(0.131738 0 0)
(0.131738 0 0)
(0.131738 0 0)
(0.131738 0 0)
(0.131738 0 0)
(0.131738 0 0)
(0.131738 0 0)
(0.131738 0 0)
(0.131738 0 0)
(0.131738 0 0)
(0.131738 0 0)
(0.131738 0 0)
(0.131738 0 0)
(0.131738 0 0)
(0.131738 0 0)
(0.131738 0 0)
(0.131738 0 0)
(0.131738 0 0)
(0.131738 0 0)
(0.131738 0 0)
(0.131738 0 0)
(0.131738 0 0)
(0.131738 0 0)
(0.131738 0 0)
(0.131738 0 0)
(0.131738 0 0)
(0.131738 0 0)
(0.131738 0 0)
(0.131738 0 0)
(0.131738 0 0)
(0.131738 0 0)
(0.131738 0 0)
(0.131738 0 0)
(0.131738 0 0)
(0.131738 0 0)
(0.131738 0 0)
(0.131738 0 0)
(0.131738 0 0)
(0.131738 0 0)
(0.131738 0 0)
(0.131738 0 0)
(0.131738 0 0)
(0.131738 0 0)
(0.131738 0 0)
(0.131738 0 0)
(0.131738 0 0)
(0.131738 0 0)
(0.131738 0 0)
(0.131738 0 0)
(0.131738 0 0)
(0.131738 0 0)
(0.131738 0 0)
(0.131738 0 0)
(0.131738 0 0)
(0.131738 0 0)
(0.131738 0 0)
(0.131738 0 0)
(0.131738 0 0)
(0.131738 0 0)
(0.131738 0 0)
(0.131738 0 0)
(0.131738 0 0)
(0.131738 0 0)
(0.131738 0 0)
(0.131738 0 0)
(0.131738 0 0)
(0.131738 0 0)
(0.131738 0 0)
(0.131738 0 0)
(0.131738 0 0)
(0.131738 0 0)
(0.131738 0 0)
(0.131738 0 0)
(0.131738 0 0)
(0.131738 0 0)
(0.131738 0 0)
(0.131738 0 0)
(0.131738 0 0)
(0.131738 0 0)
(0.131738 0 0)
(0.131738 0 0)
(0.131738 0 0)
(0.131738 0 0)
(0.131738 0 0)
(0.131738 0 0)
(0.131738 0 0)
(0.131738 0 0)
(0.131738 0 0)
(0.131738 0 0)
(0.131738 0 0)
(0.131738 0 0)
(0.131738 0 0)
(0.131738 0 0)
(0.131738 0 0)
(0.131738 0 0)
(0.131738 0 0)
(0.131738 0 0)
(0.131738 0 0)
(0.131738 0 0)
(0.131738 0 0)
(0.131738 0 0)
(0.131738 0 0)
(0.131738 0 0)
(0.131738 0 0)
(0.131738 0 0)
(0.131738 0 0)
(0.131738 0 0)
(0.131738 0 0)
(0.131738 0 0)
(0.131738 0 0)
(0.131738 0 0)
(0.131738 0 0)
(0.131738 0 0)
(0.131738 0 0)
(0.131738 0 0)
(0.131738 0 0)
(0.131738 0 0)
(0.131738 0 0)
(0.131738 0 0)
(0.131738 0 0)
(0.131738 0 0)
(0.131738 0 0)
(0.131738 0 0)
(0.131738 0 0)
(0.131738 0 0)
(0.131738 0 0)
(0.131738 0 0)
(0.131738 0 0)
(0.131738 0 0)
(0.131738 0 0)
(0.131738 0 0)
(0.131738 0 0)
(0.131738 0 0)
(0.131738 0 0)
(0.131738 0 0)
(0.131738 0 0)
(0.131738 0 0)
(0.131738 0 0)
(0.131738 0 0)
(0.131738 0 0)
(0.131738 0 0)
(0.131738 0 0)
(0.131738 0 0)
(0.131738 0 0)
(0.131738 0 0)
(0.131738 0 0)
(0.131738 0 0)
(0.131738 0 0)
(0.131738 0 0)
(0.131738 0 0)
(0.131738 0 0)
(0.131738 0 0)
(0.131738 0 0)
(0.131738 0 0)
(0.131738 0 0)
(0.131738 0 0)
(0.131738 0 0)
(0.131738 0 0)
(0.131738 0 0)
(0.131738 0 0)
(0.131738 0 0)
(0.131738 0 0)
(0.131738 0 0)
(0.131738 0 0)
(0.131738 0 0)
(0.131738 0 0)
(0.131738 0 0)
(0.131738 0 0)
(0.131738 0 0)
(0.131738 0 0)
(0.131738 0 0)
(0.131738 0 0)
(0.131738 0 0)
(0.131738 0 0)
(0.131738 0 0)
(0.131738 0 0)
(0.131738 0 0)
(0.131738 0 0)
(0.131738 0 0)
(0.131738 0 0)
(0.131738 0 0)
(0.131738 0 0)
(0.131738 0 0)
(0.131738 0 0)
(0.131738 0 0)
(0.131738 0 0)
(0.131738 0 0)
(0.131738 0 0)
(0.131738 0 0)
(0.131738 0 0)
(0.131738 0 0)
(0.131738 0 0)
(0.131738 0 0)
(0.131738 0 0)
(0.131738 0 0)
(0.131738 0 0)
(0.131738 0 0)
(0.131738 0 0)
(0.131738 0 0)
(0.131738 0 0)
(0.131738 0 0)
(0.131738 0 0)
(0.131738 0 0)
(0.131737 0 0)
(0.131739 0 0)
(0.131737 0 0)
)
;

boundaryField
{
    topWall
    {
        type            empty;
    }
    bottomWall
    {
        type            empty;
    }
    leftAndRight_half1
    {
        type            cyclic;
    }
    leftAndRight_half0
    {
        type            cyclic;
    }
    frontAndBack
    {
        type            empty;
    }
}


// ************************************************************************* //
