/*--------------------------------*- C++ -*----------------------------------*\
  =========                 |
  \\      /  F ield         | OpenFOAM: The Open Source CFD Toolbox
   \\    /   O peration     | Website:  https://openfoam.org
    \\  /    A nd           | Version:  9
     \\/     M anipulation  |
\*---------------------------------------------------------------------------*/
FoamFile
{
    format      ascii;
    class       volVectorField;
    location    "3.6";
    object      U;
}
// * * * * * * * * * * * * * * * * * * * * * * * * * * * * * * * * * * * * * //

dimensions      [0 1 -1 0 0 0 0];

internalField   nonuniform List<vector> 
1000
(
(0.131766 0 0)
(0.131693 0 0)
(0.131767 0 0)
(0.131691 0 0)
(0.131767 0 0)
(0.13169 0 0)
(0.131768 0 0)
(0.131688 0 0)
(0.131768 0 0)
(0.131686 0 0)
(0.131769 0 0)
(0.131685 0 0)
(0.131769 0 0)
(0.131683 0 0)
(0.13177 0 0)
(0.131681 0 0)
(0.13177 0 0)
(0.13168 0 0)
(0.13177 0 0)
(0.131679 0 0)
(0.13177 0 0)
(0.131677 0 0)
(0.131771 0 0)
(0.131676 0 0)
(0.131771 0 0)
(0.131675 0 0)
(0.131771 0 0)
(0.131675 0 0)
(0.131771 0 0)
(0.131674 0 0)
(0.131772 0 0)
(0.131674 0 0)
(0.131772 0 0)
(0.131674 0 0)
(0.131772 0 0)
(0.131674 0 0)
(0.131773 0 0)
(0.131674 0 0)
(0.131774 0 0)
(0.131675 0 0)
(0.131774 0 0)
(0.131676 0 0)
(0.131775 0 0)
(0.131677 0 0)
(0.131777 0 0)
(0.131679 0 0)
(0.131778 0 0)
(0.131682 0 0)
(0.13178 0 0)
(0.131684 0 0)
(0.131782 0 0)
(0.131688 0 0)
(0.131784 0 0)
(0.131692 0 0)
(0.131787 0 0)
(0.131696 0 0)
(0.13179 0 0)
(0.131702 0 0)
(0.131794 0 0)
(0.131707 0 0)
(0.131799 0 0)
(0.131714 0 0)
(0.131804 0 0)
(0.131722 0 0)
(0.13181 0 0)
(0.13173 0 0)
(0.131816 0 0)
(0.13174 0 0)
(0.131824 0 0)
(0.13175 0 0)
(0.131832 0 0)
(0.131761 0 0)
(0.131841 0 0)
(0.131774 0 0)
(0.131852 0 0)
(0.131787 0 0)
(0.131863 0 0)
(0.131802 0 0)
(0.131876 0 0)
(0.131819 0 0)
(0.13189 0 0)
(0.131836 0 0)
(0.131906 0 0)
(0.131854 0 0)
(0.131925 0 0)
(0.13187 0 0)
(0.131949 0 0)
(0.131883 0 0)
(0.131985 0 0)
(0.131884 0 0)
(0.132041 0 0)
(0.131869 0 0)
(0.13212 0 0)
(0.131847 0 0)
(0.132208 0 0)
(0.131858 0 0)
(0.132272 0 0)
(0.13195 0 0)
(0.132303 0 0)
(0.132118 0 0)
(0.132357 0 0)
(0.132288 0 0)
(0.13246 0 0)
(0.13243 0 0)
(0.132575 0 0)
(0.132545 0 0)
(0.132673 0 0)
(0.132634 0 0)
(0.132745 0 0)
(0.132699 0 0)
(0.132796 0 0)
(0.132746 0 0)
(0.132831 0 0)
(0.132781 0 0)
(0.132858 0 0)
(0.13281 0 0)
(0.132882 0 0)
(0.132838 0 0)
(0.132905 0 0)
(0.132865 0 0)
(0.132928 0 0)
(0.132893 0 0)
(0.132952 0 0)
(0.132921 0 0)
(0.132978 0 0)
(0.132951 0 0)
(0.133004 0 0)
(0.132982 0 0)
(0.133032 0 0)
(0.133013 0 0)
(0.133061 0 0)
(0.133045 0 0)
(0.133091 0 0)
(0.133079 0 0)
(0.133122 0 0)
(0.133112 0 0)
(0.133153 0 0)
(0.133147 0 0)
(0.133186 0 0)
(0.133182 0 0)
(0.133219 0 0)
(0.133218 0 0)
(0.133253 0 0)
(0.133254 0 0)
(0.133288 0 0)
(0.133291 0 0)
(0.133322 0 0)
(0.133327 0 0)
(0.133358 0 0)
(0.133364 0 0)
(0.133393 0 0)
(0.133401 0 0)
(0.133429 0 0)
(0.133438 0 0)
(0.133465 0 0)
(0.133475 0 0)
(0.1335 0 0)
(0.133512 0 0)
(0.133535 0 0)
(0.133548 0 0)
(0.13357 0 0)
(0.133584 0 0)
(0.133605 0 0)
(0.133619 0 0)
(0.133639 0 0)
(0.133653 0 0)
(0.133672 0 0)
(0.133686 0 0)
(0.133705 0 0)
(0.133719 0 0)
(0.133736 0 0)
(0.13375 0 0)
(0.133766 0 0)
(0.13378 0 0)
(0.133795 0 0)
(0.133809 0 0)
(0.133823 0 0)
(0.133836 0 0)
(0.133849 0 0)
(0.133862 0 0)
(0.133873 0 0)
(0.133886 0 0)
(0.133896 0 0)
(0.133908 0 0)
(0.133917 0 0)
(0.133929 0 0)
(0.133935 0 0)
(0.133947 0 0)
(0.13395 0 0)
(0.133964 0 0)
(0.133963 0 0)
(0.133979 0 0)
(0.133975 0 0)
(0.13399 0 0)
(0.133986 0 0)
(0.133998 0 0)
(0.133996 0 0)
(0.134005 0 0)
(0.134007 0 0)
(0.134018 0 0)
(0.134022 0 0)
(0.134035 0 0)
(0.134036 0 0)
(0.134033 0 0)
(0.134001 0 0)
(0.13395 0 0)
(0.133868 0 0)
(0.133779 0 0)
(0.133685 0 0)
(0.133609 0 0)
(0.133544 0 0)
(0.133503 0 0)
(0.133471 0 0)
(0.133455 0 0)
(0.133441 0 0)
(0.133437 0 0)
(0.133432 0 0)
(0.133432 0 0)
(0.133428 0 0)
(0.133428 0 0)
(0.133425 0 0)
(0.133424 0 0)
(0.13342 0 0)
(0.133418 0 0)
(0.133413 0 0)
(0.13341 0 0)
(0.133404 0 0)
(0.133401 0 0)
(0.133393 0 0)
(0.133389 0 0)
(0.133381 0 0)
(0.133375 0 0)
(0.133366 0 0)
(0.133359 0 0)
(0.133349 0 0)
(0.133341 0 0)
(0.133331 0 0)
(0.133322 0 0)
(0.133311 0 0)
(0.133301 0 0)
(0.133289 0 0)
(0.133278 0 0)
(0.133265 0 0)
(0.133254 0 0)
(0.13324 0 0)
(0.133228 0 0)
(0.133214 0 0)
(0.133201 0 0)
(0.133186 0 0)
(0.133172 0 0)
(0.133157 0 0)
(0.133143 0 0)
(0.133127 0 0)
(0.133112 0 0)
(0.133096 0 0)
(0.13308 0 0)
(0.133064 0 0)
(0.133048 0 0)
(0.133031 0 0)
(0.133014 0 0)
(0.132997 0 0)
(0.13298 0 0)
(0.132962 0 0)
(0.132945 0 0)
(0.132927 0 0)
(0.13291 0 0)
(0.132892 0 0)
(0.132874 0 0)
(0.132856 0 0)
(0.132838 0 0)
(0.13282 0 0)
(0.132802 0 0)
(0.132784 0 0)
(0.132766 0 0)
(0.132748 0 0)
(0.13273 0 0)
(0.132711 0 0)
(0.132693 0 0)
(0.132675 0 0)
(0.132657 0 0)
(0.132639 0 0)
(0.132621 0 0)
(0.132603 0 0)
(0.132586 0 0)
(0.132568 0 0)
(0.13255 0 0)
(0.132533 0 0)
(0.132516 0 0)
(0.132499 0 0)
(0.132482 0 0)
(0.132465 0 0)
(0.132448 0 0)
(0.132431 0 0)
(0.132415 0 0)
(0.132399 0 0)
(0.132383 0 0)
(0.132367 0 0)
(0.132351 0 0)
(0.132335 0 0)
(0.13232 0 0)
(0.132305 0 0)
(0.13229 0 0)
(0.132276 0 0)
(0.132261 0 0)
(0.132247 0 0)
(0.132233 0 0)
(0.132219 0 0)
(0.132205 0 0)
(0.132192 0 0)
(0.132179 0 0)
(0.132166 0 0)
(0.132154 0 0)
(0.132141 0 0)
(0.132129 0 0)
(0.132117 0 0)
(0.132105 0 0)
(0.132094 0 0)
(0.132083 0 0)
(0.132072 0 0)
(0.132061 0 0)
(0.132051 0 0)
(0.13204 0 0)
(0.13203 0 0)
(0.132021 0 0)
(0.132011 0 0)
(0.132002 0 0)
(0.131993 0 0)
(0.131984 0 0)
(0.131975 0 0)
(0.131967 0 0)
(0.131959 0 0)
(0.131951 0 0)
(0.131943 0 0)
(0.131935 0 0)
(0.131928 0 0)
(0.131921 0 0)
(0.131914 0 0)
(0.131907 0 0)
(0.131901 0 0)
(0.131895 0 0)
(0.131888 0 0)
(0.131882 0 0)
(0.131877 0 0)
(0.131871 0 0)
(0.131866 0 0)
(0.131861 0 0)
(0.131856 0 0)
(0.131851 0 0)
(0.131846 0 0)
(0.131841 0 0)
(0.131837 0 0)
(0.131833 0 0)
(0.131829 0 0)
(0.131825 0 0)
(0.131821 0 0)
(0.131817 0 0)
(0.131814 0 0)
(0.13181 0 0)
(0.131807 0 0)
(0.131804 0 0)
(0.131801 0 0)
(0.131798 0 0)
(0.131795 0 0)
(0.131793 0 0)
(0.13179 0 0)
(0.131787 0 0)
(0.131785 0 0)
(0.131783 0 0)
(0.131781 0 0)
(0.131779 0 0)
(0.131777 0 0)
(0.131775 0 0)
(0.131773 0 0)
(0.131771 0 0)
(0.131769 0 0)
(0.131768 0 0)
(0.131766 0 0)
(0.131765 0 0)
(0.131763 0 0)
(0.131762 0 0)
(0.131761 0 0)
(0.13176 0 0)
(0.131758 0 0)
(0.131757 0 0)
(0.131756 0 0)
(0.131755 0 0)
(0.131754 0 0)
(0.131753 0 0)
(0.131753 0 0)
(0.131752 0 0)
(0.131751 0 0)
(0.13175 0 0)
(0.13175 0 0)
(0.131749 0 0)
(0.131748 0 0)
(0.131748 0 0)
(0.131747 0 0)
(0.131747 0 0)
(0.131746 0 0)
(0.131746 0 0)
(0.131745 0 0)
(0.131745 0 0)
(0.131744 0 0)
(0.131744 0 0)
(0.131744 0 0)
(0.131743 0 0)
(0.131743 0 0)
(0.131743 0 0)
(0.131742 0 0)
(0.131742 0 0)
(0.131742 0 0)
(0.131742 0 0)
(0.131741 0 0)
(0.131741 0 0)
(0.131741 0 0)
(0.131741 0 0)
(0.131741 0 0)
(0.13174 0 0)
(0.13174 0 0)
(0.13174 0 0)
(0.13174 0 0)
(0.13174 0 0)
(0.13174 0 0)
(0.13174 0 0)
(0.131739 0 0)
(0.131739 0 0)
(0.131739 0 0)
(0.131739 0 0)
(0.131739 0 0)
(0.131739 0 0)
(0.131739 0 0)
(0.131739 0 0)
(0.131739 0 0)
(0.131739 0 0)
(0.131739 0 0)
(0.131739 0 0)
(0.131739 0 0)
(0.131739 0 0)
(0.131739 0 0)
(0.131738 0 0)
(0.131738 0 0)
(0.131738 0 0)
(0.131738 0 0)
(0.131738 0 0)
(0.131738 0 0)
(0.131738 0 0)
(0.131738 0 0)
(0.131738 0 0)
(0.131738 0 0)
(0.131738 0 0)
(0.131738 0 0)
(0.131738 0 0)
(0.131738 0 0)
(0.131738 0 0)
(0.131738 0 0)
(0.131738 0 0)
(0.131738 0 0)
(0.131738 0 0)
(0.131738 0 0)
(0.131738 0 0)
(0.131738 0 0)
(0.131738 0 0)
(0.131738 0 0)
(0.131738 0 0)
(0.131738 0 0)
(0.131738 0 0)
(0.131738 0 0)
(0.131738 0 0)
(0.131738 0 0)
(0.131738 0 0)
(0.131738 0 0)
(0.131738 0 0)
(0.131738 0 0)
(0.131738 0 0)
(0.131738 0 0)
(0.131738 0 0)
(0.131738 0 0)
(0.131738 0 0)
(0.131738 0 0)
(0.131738 0 0)
(0.131738 0 0)
(0.131738 0 0)
(0.131738 0 0)
(0.131738 0 0)
(0.131738 0 0)
(0.131738 0 0)
(0.131738 0 0)
(0.131738 0 0)
(0.131738 0 0)
(0.131738 0 0)
(0.131738 0 0)
(0.131738 0 0)
(0.131738 0 0)
(0.131738 0 0)
(0.131738 0 0)
(0.131738 0 0)
(0.131738 0 0)
(0.131738 0 0)
(0.131738 0 0)
(0.131738 0 0)
(0.131738 0 0)
(0.131738 0 0)
(0.131738 0 0)
(0.131738 0 0)
(0.131738 0 0)
(0.131738 0 0)
(0.131738 0 0)
(0.131738 0 0)
(0.131738 0 0)
(0.131738 0 0)
(0.131738 0 0)
(0.131738 0 0)
(0.131738 0 0)
(0.131738 0 0)
(0.131738 0 0)
(0.131738 0 0)
(0.131738 0 0)
(0.131738 0 0)
(0.131738 0 0)
(0.131738 0 0)
(0.131738 0 0)
(0.131738 0 0)
(0.131738 0 0)
(0.131738 0 0)
(0.131738 0 0)
(0.131738 0 0)
(0.131738 0 0)
(0.131738 0 0)
(0.131738 0 0)
(0.131738 0 0)
(0.131738 0 0)
(0.131738 0 0)
(0.131738 0 0)
(0.131738 0 0)
(0.131738 0 0)
(0.131738 0 0)
(0.131738 0 0)
(0.131738 0 0)
(0.131738 0 0)
(0.131738 0 0)
(0.131738 0 0)
(0.131738 0 0)
(0.131738 0 0)
(0.131738 0 0)
(0.131738 0 0)
(0.131738 0 0)
(0.131738 0 0)
(0.131738 0 0)
(0.131738 0 0)
(0.131738 0 0)
(0.131738 0 0)
(0.131738 0 0)
(0.131738 0 0)
(0.131738 0 0)
(0.131738 0 0)
(0.131738 0 0)
(0.131738 0 0)
(0.131738 0 0)
(0.131738 0 0)
(0.131738 0 0)
(0.131738 0 0)
(0.131738 0 0)
(0.131738 0 0)
(0.131738 0 0)
(0.131738 0 0)
(0.131738 0 0)
(0.131738 0 0)
(0.131738 0 0)
(0.131738 0 0)
(0.131738 0 0)
(0.131738 0 0)
(0.131738 0 0)
(0.131738 0 0)
(0.131738 0 0)
(0.131738 0 0)
(0.131738 0 0)
(0.131738 0 0)
(0.131738 0 0)
(0.131738 0 0)
(0.131738 0 0)
(0.131738 0 0)
(0.131738 0 0)
(0.131738 0 0)
(0.131738 0 0)
(0.131738 0 0)
(0.131738 0 0)
(0.131738 0 0)
(0.131738 0 0)
(0.131738 0 0)
(0.131738 0 0)
(0.131738 0 0)
(0.131738 0 0)
(0.131738 0 0)
(0.131738 0 0)
(0.131738 0 0)
(0.131738 0 0)
(0.131738 0 0)
(0.131738 0 0)
(0.131738 0 0)
(0.131738 0 0)
(0.131738 0 0)
(0.131738 0 0)
(0.131738 0 0)
(0.131738 0 0)
(0.131738 0 0)
(0.131738 0 0)
(0.131738 0 0)
(0.131738 0 0)
(0.131738 0 0)
(0.131738 0 0)
(0.131738 0 0)
(0.131738 0 0)
(0.131738 0 0)
(0.131738 0 0)
(0.131738 0 0)
(0.131738 0 0)
(0.131738 0 0)
(0.131738 0 0)
(0.131738 0 0)
(0.131738 0 0)
(0.131738 0 0)
(0.131738 0 0)
(0.131738 0 0)
(0.131738 0 0)
(0.131738 0 0)
(0.131738 0 0)
(0.131738 0 0)
(0.131738 0 0)
(0.131738 0 0)
(0.131738 0 0)
(0.131738 0 0)
(0.131738 0 0)
(0.131738 0 0)
(0.131738 0 0)
(0.131738 0 0)
(0.131738 0 0)
(0.131738 0 0)
(0.131738 0 0)
(0.131738 0 0)
(0.131738 0 0)
(0.131738 0 0)
(0.131738 0 0)
(0.131738 0 0)
(0.131738 0 0)
(0.131738 0 0)
(0.131738 0 0)
(0.131738 0 0)
(0.131738 0 0)
(0.131738 0 0)
(0.131738 0 0)
(0.131738 0 0)
(0.131738 0 0)
(0.131738 0 0)
(0.131738 0 0)
(0.131738 0 0)
(0.131738 0 0)
(0.131738 0 0)
(0.131738 0 0)
(0.131738 0 0)
(0.131738 0 0)
(0.131738 0 0)
(0.131738 0 0)
(0.131738 0 0)
(0.131738 0 0)
(0.131738 0 0)
(0.131738 0 0)
(0.131738 0 0)
(0.131738 0 0)
(0.131738 0 0)
(0.131738 0 0)
(0.131738 0 0)
(0.131738 0 0)
(0.131738 0 0)
(0.131738 0 0)
(0.131738 0 0)
(0.131738 0 0)
(0.131738 0 0)
(0.131738 0 0)
(0.131738 0 0)
(0.131738 0 0)
(0.131738 0 0)
(0.131738 0 0)
(0.131738 0 0)
(0.131738 0 0)
(0.131738 0 0)
(0.131738 0 0)
(0.131738 0 0)
(0.131738 0 0)
(0.131738 0 0)
(0.131738 0 0)
(0.131738 0 0)
(0.131738 0 0)
(0.131738 0 0)
(0.131738 0 0)
(0.131738 0 0)
(0.131738 0 0)
(0.131738 0 0)
(0.131738 0 0)
(0.131738 0 0)
(0.131738 0 0)
(0.131738 0 0)
(0.131738 0 0)
(0.131738 0 0)
(0.131738 0 0)
(0.131738 0 0)
(0.131738 0 0)
(0.131738 0 0)
(0.131738 0 0)
(0.131738 0 0)
(0.131738 0 0)
(0.131738 0 0)
(0.131738 0 0)
(0.131738 0 0)
(0.131738 0 0)
(0.131738 0 0)
(0.131738 0 0)
(0.131738 0 0)
(0.131738 0 0)
(0.131738 0 0)
(0.131738 0 0)
(0.131738 0 0)
(0.131738 0 0)
(0.131738 0 0)
(0.131738 0 0)
(0.131738 0 0)
(0.131738 0 0)
(0.131738 0 0)
(0.131738 0 0)
(0.131738 0 0)
(0.131738 0 0)
(0.131738 0 0)
(0.131738 0 0)
(0.131738 0 0)
(0.131738 0 0)
(0.131738 0 0)
(0.131738 0 0)
(0.131738 0 0)
(0.131738 0 0)
(0.131738 0 0)
(0.131738 0 0)
(0.131738 0 0)
(0.131738 0 0)
(0.131738 0 0)
(0.131738 0 0)
(0.131738 0 0)
(0.131738 0 0)
(0.131738 0 0)
(0.131738 0 0)
(0.131738 0 0)
(0.131738 0 0)
(0.131738 0 0)
(0.131738 0 0)
(0.131738 0 0)
(0.131738 0 0)
(0.131738 0 0)
(0.131738 0 0)
(0.131738 0 0)
(0.131738 0 0)
(0.131738 0 0)
(0.131738 0 0)
(0.131738 0 0)
(0.131738 0 0)
(0.131738 0 0)
(0.131738 0 0)
(0.131738 0 0)
(0.131738 0 0)
(0.131738 0 0)
(0.131738 0 0)
(0.131738 0 0)
(0.131738 0 0)
(0.131738 0 0)
(0.131738 0 0)
(0.131738 0 0)
(0.131738 0 0)
(0.131738 0 0)
(0.131738 0 0)
(0.131738 0 0)
(0.131738 0 0)
(0.131738 0 0)
(0.131738 0 0)
(0.131738 0 0)
(0.131738 0 0)
(0.131738 0 0)
(0.131738 0 0)
(0.131738 0 0)
(0.131738 0 0)
(0.131738 0 0)
(0.131738 0 0)
(0.131738 0 0)
(0.131738 0 0)
(0.131738 0 0)
(0.131738 0 0)
(0.131738 0 0)
(0.131738 0 0)
(0.131738 0 0)
(0.131738 0 0)
(0.131738 0 0)
(0.131738 0 0)
(0.131738 0 0)
(0.131738 0 0)
(0.131738 0 0)
(0.131738 0 0)
(0.131738 0 0)
(0.131738 0 0)
(0.131738 0 0)
(0.131738 0 0)
(0.131738 0 0)
(0.131738 0 0)
(0.131738 0 0)
(0.131738 0 0)
(0.131738 0 0)
(0.131738 0 0)
(0.131738 0 0)
(0.131738 0 0)
(0.131738 0 0)
(0.131738 0 0)
(0.131738 0 0)
(0.131738 0 0)
(0.131738 0 0)
(0.131738 0 0)
(0.131738 0 0)
(0.131738 0 0)
(0.131738 0 0)
(0.131738 0 0)
(0.131738 0 0)
(0.131738 0 0)
(0.131738 0 0)
(0.131738 0 0)
(0.131738 0 0)
(0.131738 0 0)
(0.131738 0 0)
(0.131738 0 0)
(0.131738 0 0)
(0.131738 0 0)
(0.131738 0 0)
(0.131738 0 0)
(0.131738 0 0)
(0.131738 0 0)
(0.131738 0 0)
(0.131738 0 0)
(0.131738 0 0)
(0.131738 0 0)
(0.131738 0 0)
(0.131738 0 0)
(0.131738 0 0)
(0.131738 0 0)
(0.131738 0 0)
(0.131738 0 0)
(0.131738 0 0)
(0.131738 0 0)
(0.131738 0 0)
(0.131738 0 0)
(0.131738 0 0)
(0.131738 0 0)
(0.131738 0 0)
(0.131738 0 0)
(0.131738 0 0)
(0.131738 0 0)
(0.131738 0 0)
(0.131738 0 0)
(0.131738 0 0)
(0.131738 0 0)
(0.131738 0 0)
(0.131738 0 0)
(0.131738 0 0)
(0.131738 0 0)
(0.131738 0 0)
(0.131738 0 0)
(0.131738 0 0)
(0.131738 0 0)
(0.131738 0 0)
(0.131738 0 0)
(0.131738 0 0)
(0.131738 0 0)
(0.131738 0 0)
(0.131738 0 0)
(0.131738 0 0)
(0.131738 0 0)
(0.131738 0 0)
(0.131738 0 0)
(0.131738 0 0)
(0.131738 0 0)
(0.131738 0 0)
(0.131738 0 0)
(0.131738 0 0)
(0.131738 0 0)
(0.131738 0 0)
(0.131738 0 0)
(0.131738 0 0)
(0.131738 0 0)
(0.131738 0 0)
(0.131737 0 0)
(0.131739 0 0)
(0.131737 0 0)
(0.131739 0 0)
(0.131737 0 0)
(0.131739 0 0)
(0.131737 0 0)
(0.131739 0 0)
(0.131737 0 0)
(0.131739 0 0)
(0.131737 0 0)
(0.131739 0 0)
(0.131737 0 0)
(0.131739 0 0)
(0.131737 0 0)
(0.131739 0 0)
(0.131737 0 0)
(0.131739 0 0)
(0.131736 0 0)
(0.13174 0 0)
(0.131736 0 0)
(0.13174 0 0)
(0.131736 0 0)
(0.13174 0 0)
(0.131736 0 0)
(0.13174 0 0)
(0.131736 0 0)
(0.13174 0 0)
(0.131735 0 0)
(0.131741 0 0)
(0.131735 0 0)
(0.131741 0 0)
(0.131735 0 0)
(0.131741 0 0)
(0.131735 0 0)
(0.131741 0 0)
(0.131734 0 0)
(0.131742 0 0)
(0.131734 0 0)
(0.131742 0 0)
(0.131733 0 0)
(0.131742 0 0)
(0.131733 0 0)
(0.131743 0 0)
(0.131733 0 0)
(0.131743 0 0)
(0.131732 0 0)
(0.131744 0 0)
(0.131732 0 0)
(0.131744 0 0)
(0.131731 0 0)
(0.131745 0 0)
(0.13173 0 0)
(0.131745 0 0)
(0.13173 0 0)
(0.131746 0 0)
(0.131729 0 0)
(0.131746 0 0)
(0.131728 0 0)
(0.131747 0 0)
(0.131727 0 0)
(0.131747 0 0)
(0.131727 0 0)
(0.131748 0 0)
(0.131726 0 0)
(0.131749 0 0)
(0.131725 0 0)
(0.13175 0 0)
(0.131724 0 0)
(0.13175 0 0)
(0.131723 0 0)
(0.131751 0 0)
(0.131722 0 0)
(0.131752 0 0)
(0.131721 0 0)
(0.131753 0 0)
(0.131719 0 0)
(0.131753 0 0)
(0.131718 0 0)
(0.131754 0 0)
(0.131717 0 0)
(0.131755 0 0)
(0.131716 0 0)
(0.131756 0 0)
(0.131714 0 0)
(0.131757 0 0)
(0.131713 0 0)
(0.131758 0 0)
(0.131711 0 0)
(0.131759 0 0)
(0.13171 0 0)
(0.131759 0 0)
(0.131708 0 0)
(0.13176 0 0)
(0.131707 0 0)
(0.131761 0 0)
(0.131705 0 0)
(0.131762 0 0)
(0.131703 0 0)
(0.131763 0 0)
(0.131702 0 0)
(0.131763 0 0)
(0.1317 0 0)
(0.131764 0 0)
(0.131698 0 0)
(0.131765 0 0)
(0.131697 0 0)
(0.131766 0 0)
(0.131695 0 0)
)
;

boundaryField
{
    topWall
    {
        type            empty;
    }
    bottomWall
    {
        type            empty;
    }
    leftAndRight_half1
    {
        type            cyclic;
    }
    leftAndRight_half0
    {
        type            cyclic;
    }
    frontAndBack
    {
        type            empty;
    }
}


// ************************************************************************* //
