/*--------------------------------*- C++ -*----------------------------------*\
  =========                 |
  \\      /  F ield         | OpenFOAM: The Open Source CFD Toolbox
   \\    /   O peration     | Website:  https://openfoam.org
    \\  /    A nd           | Version:  9
     \\/     M anipulation  |
\*---------------------------------------------------------------------------*/
FoamFile
{
    format      ascii;
    class       volScalarField;
    location    "0";
    object      f_0;
}
// * * * * * * * * * * * * * * * * * * * * * * * * * * * * * * * * * * * * * //

dimensions      [1 -3 0 0 0 0 0];

internalField   nonuniform List<scalar> 
1000
(
666.65
666.65
666.65
666.65
666.65
666.65
666.65
666.65
666.65
666.65
666.65
666.65
666.65
666.65
666.65
666.65
666.65
666.65
666.65
666.65
666.65
666.65
666.65
666.65
666.65
666.65
666.65
666.65
666.65
666.65
666.65
666.65
666.65
666.65
666.65
666.65
666.65
666.65
666.65
666.65
666.65
666.65
666.65
666.65
666.65
666.65
666.65
666.65
666.65
666.65
666.65
666.65
666.65
666.65
666.65
666.65
666.65
666.65
666.65
666.65
666.65
666.65
666.65
666.65
666.65
666.65
666.65
666.65
666.65
666.65
666.65
666.65
666.65
666.65
666.65
666.65
666.65
666.65
666.65
666.65
666.65
666.65
666.65
666.65
666.65
666.65
666.65
666.65
666.65
666.65
666.65
666.65
666.65
666.65
666.65
666.65
666.65
666.65
666.65
666.65
666.65
666.65
666.65
666.65
666.65
666.65
666.65
666.65
666.65
666.65
666.65
666.65
666.65
666.65
666.65
666.65
666.65
666.65
666.65
666.65
666.65
666.65
666.65
666.65
666.65
666.65
666.65
666.65
666.65
666.65
666.65
666.65
666.65
666.65
666.65
666.65
666.65
666.65
666.65
666.65
666.65
666.65
666.65
666.65
666.65
666.65
666.65
666.65
666.65
666.65
666.65
666.65
666.65
666.65
666.65
666.65
666.65
666.65
666.65
666.65
666.65
666.65
666.65
666.65
666.65
666.65
666.65
666.65
666.65
666.65
666.65
666.65
666.65
666.65
666.65
666.65
666.65
666.65
666.65
666.65
666.65
666.65
666.65
666.65
666.65
666.65
666.65
666.65
666.65
666.65
666.65
666.65
666.65
666.65
666.65
666.65
666.65
666.65
666.65
666.65
666.65
666.65
666.65
666.65
666.65
666.65
666.65
666.65
666.65
666.65
666.65
666.65
666.65
666.65
666.65
666.65
666.65
666.65
666.65
666.65
666.65
666.65
666.65
666.65
666.65
666.65
666.65
666.65
666.65
666.65
666.65
666.65
666.65
666.65
666.65
666.65
666.65
666.65
666.65
666.65
666.65
666.65
666.65
666.65
666.65
666.65
666.65
666.65
666.65
666.65
666.65
666.65
666.65
666.65
666.65
666.65
666.65
666.65
666.65
666.65
666.65
666.65
666.65
666.65
666.65
666.65
666.65
666.65
666.65
666.65
666.65
666.65
666.65
666.65
666.65
666.65
666.65
666.65
666.65
666.65
666.65
666.65
666.65
666.65
666.65
666.65
666.65
666.65
666.65
666.65
666.65
666.65
666.65
666.65
666.65
666.65
666.65
666.65
666.65
666.65
666.65
666.65
666.65
666.65
666.65
666.65
666.65
666.65
666.65
666.65
666.65
666.65
666.65
666.65
666.65
666.65
666.65
666.65
666.65
666.65
666.65
666.65
666.65
666.65
666.65
666.65
666.65
666.65
666.65
666.65
666.65
666.65
666.65
666.65
666.65
666.65
666.65
666.65
666.65
666.65
666.65
666.65
666.65
666.65
666.65
666.65
666.65
666.65
666.65
666.65
666.65
666.65
666.65
666.65
666.649
666.649
666.649
666.649
666.649
666.649
666.649
666.649
666.648
666.648
666.648
666.648
666.647
666.647
666.647
666.646
666.646
666.645
666.645
666.644
666.644
666.643
666.643
666.642
666.641
666.64
666.639
666.638
666.637
666.636
666.634
666.633
666.631
666.63
666.628
666.626
666.624
666.622
666.619
666.617
666.614
666.611
666.608
666.604
666.6
666.596
666.592
666.588
666.583
666.578
666.572
666.566
666.56
666.553
666.546
666.538
666.53
666.522
666.512
666.502
666.492
666.481
666.469
666.456
666.442
666.428
666.412
666.396
666.378
666.359
666.339
666.318
666.296
666.272
666.246
666.219
666.19
666.159
666.126
666.091
666.054
666.015
665.973
665.929
665.882
665.832
665.779
665.724
665.665
665.602
665.537
665.467
665.394
665.318
665.237
665.153
665.064
664.971
664.874
664.773
664.668
664.558
664.444
664.326
664.203
664.077
663.946
663.812
663.674
663.532
663.387
663.239
663.087
662.934
662.778
662.62
662.461
662.301
662.14
661.979
661.818
661.658
661.5
661.343
661.189
661.038
660.89
660.746
660.607
660.474
660.346
660.224
660.11
660.003
659.904
659.813
659.731
659.659
659.596
659.543
659.5
659.468
659.447
659.436
659.436
659.448
659.47
659.504
659.548
659.603
659.668
659.744
659.829
659.924
660.029
660.142
660.263
660.393
660.53
660.673
660.823
660.978
661.138
661.303
661.471
661.643
661.817
661.993
662.17
662.348
662.527
662.705
662.881
663.057
663.23
663.402
663.57
663.735
663.897
664.054
664.208
664.357
664.501
664.641
664.776
664.905
665.029
665.148
665.261
665.37
665.472
665.57
665.662
665.749
665.831
665.908
665.98
666.047
666.11
666.169
666.223
666.273
666.319
666.362
666.401
666.436
666.469
666.498
666.525
666.549
666.571
666.59
666.608
666.623
666.636
666.648
666.659
666.667
666.675
666.682
666.687
666.691
666.695
666.698
666.7
666.701
666.702
666.703
666.703
666.703
666.702
666.701
666.7
666.699
666.697
666.696
666.694
666.693
666.691
666.689
666.687
666.686
666.684
666.682
666.68
666.679
666.677
666.676
666.674
666.673
666.671
666.67
666.669
666.667
666.666
666.665
666.664
666.663
666.662
666.661
666.661
666.66
666.659
666.658
666.658
666.657
666.657
666.656
666.656
666.655
666.655
666.654
666.654
666.654
666.653
666.653
666.653
666.653
666.652
666.652
666.652
666.652
666.652
666.652
666.651
666.651
666.651
666.651
666.651
666.651
666.651
666.651
666.651
666.651
666.651
666.651
666.651
666.651
666.651
666.651
666.651
666.651
666.65
666.65
666.65
666.65
666.65
666.65
666.65
666.65
666.65
666.65
666.65
666.65
666.65
666.65
666.65
666.65
666.65
666.65
666.65
666.65
666.65
666.65
666.65
666.65
666.65
666.65
666.65
666.65
666.65
666.65
666.65
666.65
666.65
666.65
666.65
666.65
666.65
666.65
666.65
666.65
666.65
666.65
666.65
666.65
666.65
666.65
666.65
666.65
666.65
666.65
666.65
666.65
666.65
666.65
666.65
666.65
666.65
666.65
666.65
666.65
666.65
666.65
666.65
666.65
666.65
666.65
666.65
666.65
666.65
666.65
666.65
666.65
666.65
666.65
666.65
666.65
666.65
666.65
666.65
666.65
666.65
666.65
666.65
666.65
666.65
666.65
666.65
666.65
666.65
666.65
666.65
666.65
666.65
666.65
666.65
666.65
666.65
666.65
666.65
666.65
666.65
666.65
666.65
666.65
666.65
666.65
666.65
666.65
666.65
666.65
666.65
666.65
666.65
666.65
666.65
666.65
666.65
666.65
666.65
666.65
666.65
666.65
666.65
666.65
666.65
666.65
666.65
666.65
666.65
666.65
666.65
666.65
666.65
666.65
666.65
666.65
666.65
666.65
666.65
666.65
666.65
666.65
666.65
666.65
666.65
666.65
666.65
666.65
666.65
666.65
666.65
666.65
666.65
666.65
666.65
666.65
666.65
666.65
666.65
666.65
666.65
666.65
666.65
666.65
666.65
666.65
666.65
666.65
666.65
666.65
666.65
666.65
666.65
666.65
666.65
666.65
666.65
666.65
666.65
666.65
666.65
666.65
666.65
666.65
666.65
666.65
666.65
666.65
666.65
666.65
666.65
666.65
666.65
666.65
666.65
666.65
666.65
666.65
666.65
666.65
666.65
666.65
666.65
666.65
666.65
666.65
666.65
666.65
666.65
666.65
666.65
666.65
666.65
666.65
666.65
666.65
666.65
666.65
666.65
666.65
666.65
666.65
666.65
666.65
666.65
666.65
666.65
666.65
666.65
666.65
666.65
666.65
666.65
666.65
666.65
666.65
666.65
666.65
666.65
666.65
666.65
666.65
666.65
666.65
666.65
666.65
666.65
666.65
666.65
666.65
666.65
666.65
666.65
666.65
666.65
666.65
666.65
666.65
666.65
666.65
666.65
666.65
666.65
666.65
666.65
666.65
666.65
666.65
666.65
666.65
666.65
666.65
666.65
666.65
666.65
666.65
666.65
666.65
666.65
666.65
666.65
666.65
666.65
666.65
666.65
666.65
666.65
666.65
666.65
666.65
666.65
666.65
666.65
666.65
666.65
666.65
666.65
666.65
666.65
666.65
666.65
666.65
666.65
666.65
666.65
666.65
666.65
666.65
666.65
666.65
666.65
666.65
666.65
666.65
666.65
666.65
666.65
666.65
666.65
666.65
666.65
666.65
666.65
666.65
666.65
666.65
666.65
666.65
666.65
666.65
666.65
666.65
666.65
666.65
666.65
666.65
666.65
666.65
666.65
666.65
666.65
666.65
666.65
666.65
)
;

boundaryField
{
    topWall
    {
        type            empty;
    }
    bottomWall
    {
        type            empty;
    }
    leftAndRight_half1
    {
        type            cyclic;
    }
    leftAndRight_half0
    {
        type            cyclic;
    }
    frontAndBack
    {
        type            empty;
    }
}


// ************************************************************************* //
