/*--------------------------------*- C++ -*----------------------------------*\
  =========                 |
  \\      /  F ield         | OpenFOAM: The Open Source CFD Toolbox
   \\    /   O peration     | Website:  https://openfoam.org
    \\  /    A nd           | Version:  9
     \\/     M anipulation  |
\*---------------------------------------------------------------------------*/
FoamFile
{
    format      ascii;
    class       volScalarField;
    location    "0.15";
    object      f_0;
}
// * * * * * * * * * * * * * * * * * * * * * * * * * * * * * * * * * * * * * //

dimensions      [1 -3 0 0 0 0 0];

internalField   nonuniform List<scalar> 
1000
(
666.667
666.667
666.667
666.667
666.667
666.667
666.667
666.667
666.667
666.667
666.667
666.667
666.667
666.667
666.667
666.667
666.667
666.667
666.667
666.667
666.667
666.667
666.667
666.667
666.667
666.667
666.667
666.667
666.667
666.667
666.667
666.667
666.667
666.667
666.667
666.667
666.667
666.667
666.667
666.667
666.667
666.667
666.667
666.667
666.667
666.667
666.667
666.667
666.667
666.667
666.667
666.667
666.667
666.667
666.667
666.667
666.667
666.667
666.667
666.667
666.667
666.667
666.667
666.667
666.667
666.667
666.667
666.667
666.667
666.667
666.667
666.667
666.667
666.667
666.667
666.667
666.667
666.667
666.667
666.667
666.667
666.667
666.667
666.667
666.667
666.667
666.667
666.667
666.667
666.667
666.667
666.667
666.667
666.667
666.667
666.667
666.667
666.667
666.667
666.667
666.667
666.667
666.667
666.667
666.667
666.667
666.667
666.667
666.667
666.667
666.667
666.667
666.667
666.667
666.667
666.667
666.667
666.667
666.667
666.667
666.667
666.667
666.667
666.667
666.667
666.667
666.667
666.667
666.667
666.667
666.667
666.667
666.667
666.667
666.667
666.667
666.667
666.667
666.667
666.667
666.667
666.667
666.667
666.667
666.667
666.667
666.667
666.667
666.667
666.667
666.667
666.667
666.667
666.667
666.667
666.667
666.667
666.667
666.667
666.667
666.667
666.667
666.667
666.667
666.667
666.667
666.667
666.667
666.667
666.667
666.667
666.667
666.667
666.667
666.667
666.667
666.667
666.667
666.667
666.667
666.667
666.667
666.667
666.667
666.667
666.667
666.667
666.667
666.667
666.667
666.667
666.667
666.667
666.667
666.667
666.667
666.667
666.667
666.667
666.667
666.667
666.667
666.667
666.667
666.667
666.667
666.667
666.667
666.667
666.667
666.667
666.667
666.667
666.667
666.667
666.667
666.667
666.667
666.667
666.667
666.667
666.667
666.667
666.667
666.667
666.667
666.667
666.667
666.667
666.667
666.667
666.667
666.667
666.667
666.667
666.667
666.667
666.667
666.667
666.667
666.667
666.667
666.667
666.667
666.667
666.667
666.667
666.667
666.667
666.667
666.667
666.667
666.667
666.667
666.667
666.667
666.667
666.667
666.667
666.667
666.667
666.667
666.667
666.667
666.667
666.667
666.667
666.667
666.667
666.667
666.667
666.667
666.667
666.667
666.667
666.667
666.666
666.666
666.666
666.666
666.666
666.666
666.666
666.666
666.666
666.666
666.666
666.666
666.666
666.666
666.666
666.666
666.666
666.666
666.666
666.666
666.666
666.666
666.666
666.666
666.665
666.665
666.665
666.665
666.665
666.665
666.665
666.665
666.665
666.664
666.664
666.664
666.664
666.664
666.664
666.663
666.663
666.663
666.663
666.662
666.662
666.662
666.662
666.661
666.661
666.661
666.66
666.66
666.659
666.659
666.658
666.658
666.657
666.657
666.656
666.656
666.655
666.655
666.654
666.653
666.653
666.652
666.651
666.65
666.649
666.648
666.647
666.647
666.646
666.644
666.643
666.642
666.641
666.64
666.639
666.637
666.636
666.635
666.633
666.632
666.63
666.629
666.627
666.626
666.624
666.622
666.62
666.619
666.617
666.615
666.613
666.611
666.609
666.607
666.605
666.602
666.6
666.598
666.595
666.593
666.591
666.588
666.586
666.583
666.581
666.578
666.575
666.573
666.57
666.567
666.564
666.561
666.558
666.556
666.553
666.55
666.547
666.544
666.541
666.538
666.534
666.531
666.528
666.525
666.522
666.519
666.515
666.512
666.509
666.506
666.502
666.499
666.496
666.493
666.489
666.486
666.483
666.48
666.476
666.473
666.47
666.467
666.463
666.46
666.457
666.454
666.451
666.447
666.444
666.441
666.438
666.435
666.432
666.429
666.426
666.423
666.42
666.417
666.414
666.411
666.408
666.405
666.402
666.399
666.396
666.394
666.391
666.388
666.385
666.383
666.38
666.377
666.375
666.372
666.37
666.367
666.365
666.362
666.36
666.358
666.355
666.353
666.351
666.349
666.346
666.344
666.342
666.34
666.338
666.336
666.334
666.332
666.33
666.328
666.326
666.324
666.323
666.321
666.319
666.317
666.316
666.314
666.312
666.311
666.309
666.308
666.306
666.305
666.304
666.302
666.301
666.3
666.298
666.297
666.296
666.295
666.294
666.292
666.291
666.29
666.289
666.288
666.287
666.287
666.286
666.285
666.284
666.283
666.283
666.282
666.281
666.281
666.28
666.28
666.279
666.279
666.278
666.278
666.278
666.278
666.277
666.277
666.277
666.277
666.277
666.277
666.277
666.277
666.278
666.278
666.278
666.279
666.279
666.28
666.281
666.281
666.282
666.283
666.284
666.285
666.287
666.288
666.289
666.291
666.293
666.295
666.297
666.299
666.301
666.304
666.307
666.31
666.313
666.317
666.32
666.324
666.329
666.333
666.338
666.344
666.349
666.355
666.362
666.369
666.377
666.385
666.394
666.403
666.413
666.424
666.435
666.448
666.461
666.475
666.491
666.507
666.524
666.543
666.563
666.584
666.607
666.632
666.657
666.685
666.714
666.746
666.779
666.813
666.85
666.889
666.93
666.973
667.018
667.065
667.114
667.165
667.217
667.271
667.326
667.382
667.439
667.496
667.554
667.611
667.667
667.722
667.775
667.825
667.873
667.918
667.958
667.995
668.026
668.052
668.073
668.089
668.098
668.102
668.099
668.091
668.077
668.058
668.034
668.005
667.972
667.935
667.895
667.852
667.808
667.761
667.713
667.665
667.616
667.567
667.519
667.471
667.425
667.38
667.336
667.293
667.253
667.214
667.177
667.142
667.109
667.077
667.047
667.02
666.994
666.969
666.946
666.925
666.905
666.887
666.87
666.854
666.839
666.826
666.813
666.801
666.791
666.781
666.772
666.763
666.755
666.748
666.742
666.736
666.73
666.725
666.72
666.716
666.712
666.708
666.705
666.702
666.699
666.697
666.694
666.692
666.69
666.688
666.686
666.685
666.683
666.682
666.681
666.68
666.679
666.678
666.677
666.676
666.675
666.675
666.674
666.673
666.673
666.672
666.672
666.672
666.671
666.671
666.67
666.67
666.67
666.67
666.669
666.669
666.669
666.669
666.669
666.668
666.668
666.668
666.668
666.668
666.668
666.668
666.668
666.668
666.668
666.667
666.667
666.667
666.667
666.667
666.667
666.667
666.667
666.667
666.667
666.667
666.667
666.667
666.667
666.667
666.667
666.667
666.667
666.667
666.667
666.667
666.667
666.667
666.667
666.667
666.667
666.667
666.667
666.667
666.667
666.667
666.667
666.667
666.667
666.667
666.667
666.667
666.667
666.667
666.667
666.667
666.667
666.667
666.667
666.667
666.667
666.667
666.667
666.667
666.667
666.667
666.667
666.667
666.667
666.667
666.667
666.667
666.667
666.667
666.667
666.667
666.667
666.667
666.667
666.667
666.667
666.667
666.667
666.667
666.667
666.667
666.667
666.667
666.667
666.667
666.667
666.667
666.667
666.667
666.667
666.667
666.667
666.667
666.667
666.667
666.667
666.667
666.667
666.667
666.667
666.667
666.667
666.667
666.667
666.667
666.667
666.667
666.667
666.667
666.667
666.667
666.667
666.667
666.667
666.667
666.667
666.667
666.667
666.667
666.667
666.667
666.667
666.667
666.667
666.667
666.667
666.667
666.667
666.667
666.667
666.667
666.667
666.667
666.667
666.667
666.667
666.667
666.667
666.667
666.667
666.667
666.667
666.667
666.667
666.667
666.667
666.667
666.667
666.667
666.667
666.667
666.667
666.667
666.667
666.667
666.667
666.667
666.667
666.667
666.667
666.667
666.667
666.667
666.667
666.667
666.667
666.667
666.667
666.667
666.667
666.667
666.667
666.667
666.667
666.667
666.667
666.667
666.667
666.667
666.667
666.667
666.667
666.667
666.667
666.667
666.667
666.667
666.667
666.667
666.667
666.667
666.667
666.667
666.667
666.667
666.667
666.667
666.667
666.667
666.667
666.667
666.667
666.667
666.667
666.667
666.667
666.667
666.667
666.667
666.667
666.667
666.667
666.667
666.667
666.667
666.667
666.667
666.667
666.667
666.667
666.667
666.667
666.667
666.667
666.667
666.667
666.667
666.667
666.667
666.667
666.667
666.667
666.667
666.667
666.667
666.667
666.667
666.667
666.667
666.667
666.667
666.667
666.667
666.667
666.667
666.667
666.667
666.667
666.667
666.667
666.667
666.667
666.667
666.667
666.667
666.667
666.667
666.667
666.667
666.667
666.667
666.667
666.667
666.667
666.667
666.667
666.667
666.667
666.667
666.667
666.667
666.667
666.667
666.667
666.667
666.667
666.667
666.667
666.667
666.667
666.667
666.667
666.667
666.667
666.667
666.667
666.667
666.667
666.667
)
;

boundaryField
{
    topWall
    {
        type            empty;
    }
    bottomWall
    {
        type            empty;
    }
    leftAndRight_half1
    {
        type            cyclic;
    }
    leftAndRight_half0
    {
        type            cyclic;
    }
    frontAndBack
    {
        type            empty;
    }
}


// ************************************************************************* //
