/*--------------------------------*- C++ -*----------------------------------*\
  =========                 |
  \\      /  F ield         | OpenFOAM: The Open Source CFD Toolbox
   \\    /   O peration     | Website:  https://openfoam.org
    \\  /    A nd           | Version:  9
     \\/     M anipulation  |
\*---------------------------------------------------------------------------*/
FoamFile
{
    format      ascii;
    class       volScalarField;
    location    "0.15";
    object      f_1;
}
// * * * * * * * * * * * * * * * * * * * * * * * * * * * * * * * * * * * * * //

dimensions      [1 -3 0 0 0 0 0];

internalField   nonuniform List<scalar> 
1000
(
168.881
168.881
168.881
168.881
168.881
168.881
168.881
168.881
168.881
168.881
168.881
168.881
168.881
168.881
168.881
168.881
168.881
168.881
168.881
168.881
168.881
168.881
168.881
168.881
168.881
168.881
168.881
168.881
168.881
168.881
168.881
168.881
168.881
168.881
168.881
168.881
168.881
168.881
168.881
168.881
168.881
168.881
168.881
168.881
168.881
168.881
168.881
168.881
168.881
168.881
168.881
168.881
168.881
168.881
168.881
168.881
168.881
168.881
168.881
168.881
168.881
168.881
168.881
168.881
168.881
168.881
168.881
168.881
168.881
168.881
168.881
168.881
168.881
168.881
168.881
168.881
168.881
168.881
168.881
168.881
168.881
168.881
168.881
168.881
168.881
168.881
168.881
168.881
168.881
168.881
168.881
168.881
168.881
168.881
168.881
168.881
168.881
168.881
168.881
168.881
168.881
168.881
168.881
168.881
168.881
168.881
168.881
168.881
168.881
168.881
168.881
168.881
168.881
168.881
168.881
168.881
168.881
168.881
168.881
168.881
168.881
168.881
168.881
168.881
168.881
168.881
168.881
168.881
168.881
168.881
168.881
168.881
168.881
168.881
168.881
168.881
168.881
168.881
168.881
168.881
168.881
168.881
168.881
168.881
168.881
168.881
168.881
168.881
168.881
168.881
168.881
168.881
168.881
168.881
168.881
168.881
168.881
168.881
168.881
168.881
168.881
168.881
168.881
168.881
168.881
168.881
168.881
168.881
168.881
168.881
168.881
168.881
168.881
168.881
168.881
168.881
168.881
168.881
168.881
168.881
168.881
168.881
168.881
168.881
168.881
168.881
168.881
168.881
168.881
168.881
168.881
168.881
168.881
168.881
168.881
168.881
168.881
168.881
168.881
168.881
168.881
168.881
168.881
168.881
168.881
168.881
168.881
168.881
168.881
168.881
168.881
168.881
168.881
168.881
168.881
168.881
168.881
168.881
168.881
168.881
168.881
168.881
168.881
168.881
168.881
168.881
168.881
168.881
168.881
168.881
168.881
168.881
168.881
168.881
168.881
168.881
168.881
168.881
168.881
168.881
168.881
168.881
168.881
168.881
168.881
168.881
168.881
168.881
168.881
168.881
168.881
168.881
168.881
168.881
168.881
168.881
168.881
168.881
168.881
168.881
168.881
168.881
168.881
168.881
168.882
168.882
168.882
168.882
168.882
168.882
168.882
168.882
168.882
168.882
168.882
168.882
168.882
168.882
168.882
168.882
168.883
168.883
168.883
168.883
168.883
168.883
168.883
168.884
168.884
168.884
168.884
168.885
168.885
168.885
168.885
168.886
168.886
168.887
168.887
168.888
168.888
168.889
168.889
168.89
168.891
168.891
168.892
168.893
168.894
168.895
168.896
168.897
168.898
168.9
168.901
168.903
168.904
168.906
168.908
168.91
168.912
168.914
168.916
168.919
168.921
168.924
168.927
168.93
168.933
168.937
168.941
168.945
168.949
168.953
168.958
168.963
168.968
168.974
168.98
168.986
168.992
168.999
169.007
169.014
169.022
169.031
169.04
169.049
169.059
169.069
169.08
169.092
169.103
169.116
169.129
169.143
169.157
169.172
169.188
169.204
169.221
169.239
169.258
169.277
169.297
169.318
169.34
169.363
169.387
169.411
169.437
169.463
169.491
169.519
169.549
169.58
169.612
169.645
169.679
169.714
169.751
169.788
169.827
169.867
169.909
169.952
169.996
170.041
170.088
170.137
170.186
170.238
170.29
170.344
170.4
170.457
170.515
170.575
170.637
170.7
170.765
170.832
170.9
170.97
171.041
171.114
171.188
171.265
171.343
171.422
171.504
171.587
171.672
171.758
171.846
171.936
172.028
172.121
172.217
172.314
172.412
172.513
172.615
172.718
172.824
172.931
173.04
173.151
173.264
173.378
173.494
173.612
173.731
173.852
173.975
174.1
174.226
174.354
174.483
174.614
174.747
174.882
175.018
175.156
175.295
175.436
175.579
175.723
175.869
176.016
176.165
176.315
176.467
176.621
176.776
176.932
177.09
177.249
177.41
177.573
177.736
177.901
178.068
178.236
178.405
178.576
178.748
178.922
179.096
179.272
179.45
179.628
179.808
179.989
180.172
180.355
180.54
180.726
180.913
181.102
181.291
181.482
181.674
181.867
182.061
182.256
182.452
182.649
182.847
183.047
183.247
183.448
183.65
183.854
184.058
184.263
184.469
184.676
184.884
185.092
185.302
185.512
185.723
185.935
186.148
186.362
186.576
186.791
187.007
187.223
187.44
187.658
187.877
188.096
188.316
188.536
188.757
188.978
189.2
189.422
189.645
189.868
190.092
190.316
190.541
190.765
190.99
191.216
191.441
191.667
191.893
192.119
192.345
192.572
192.798
193.024
193.25
193.476
193.702
193.927
194.153
194.377
194.602
194.826
195.049
195.272
195.494
195.715
195.935
196.154
196.372
196.589
196.804
197.018
197.23
197.441
197.649
197.855
198.059
198.261
198.459
198.655
198.847
199.036
199.221
199.402
199.579
199.751
199.918
200.079
200.234
200.383
200.525
200.66
200.786
200.904
201.013
201.112
201.2
201.276
201.341
201.393
201.43
201.453
201.46
201.45
201.422
201.375
201.307
201.219
201.108
200.973
200.813
200.627
200.414
200.173
199.902
199.601
199.269
198.905
198.508
198.079
197.616
197.121
196.592
196.032
195.44
194.817
194.166
193.487
192.783
192.056
191.309
190.544
189.764
188.973
188.173
187.369
186.563
185.759
184.96
184.169
183.39
182.625
181.876
181.147
180.439
179.753
179.092
178.456
177.847
177.265
176.71
176.182
175.682
175.209
174.763
174.342
173.947
173.577
173.229
172.905
172.602
172.32
172.057
171.813
171.586
171.376
171.181
171.001
170.834
170.679
170.537
170.405
170.284
170.172
170.069
169.974
169.886
169.805
169.731
169.663
169.6
169.542
169.489
169.44
169.395
169.354
169.316
169.281
169.249
169.22
169.193
169.168
169.145
169.124
169.104
169.087
169.07
169.055
169.041
169.028
169.017
169.006
168.996
168.987
168.979
168.971
168.964
168.957
168.951
168.946
168.94
168.936
168.931
168.927
168.924
168.92
168.917
168.914
168.912
168.909
168.907
168.905
168.903
168.901
168.9
168.898
168.897
168.896
168.894
168.893
168.892
168.891
168.891
168.89
168.889
168.888
168.888
168.887
168.887
168.886
168.886
168.885
168.885
168.885
168.884
168.884
168.884
168.884
168.884
168.883
168.883
168.883
168.883
168.883
168.883
168.882
168.882
168.882
168.882
168.882
168.882
168.882
168.882
168.882
168.882
168.882
168.882
168.882
168.882
168.882
168.881
168.881
168.881
168.881
168.881
168.881
168.881
168.881
168.881
168.881
168.881
168.881
168.881
168.881
168.881
168.881
168.881
168.881
168.881
168.881
168.881
168.881
168.881
168.881
168.881
168.881
168.881
168.881
168.881
168.881
168.881
168.881
168.881
168.881
168.881
168.881
168.881
168.881
168.881
168.881
168.881
168.881
168.881
168.881
168.881
168.881
168.881
168.881
168.881
168.881
168.881
168.881
168.881
168.881
168.881
168.881
168.881
168.881
168.881
168.881
168.881
168.881
168.881
168.881
168.881
168.881
168.881
168.881
168.881
168.881
168.881
168.881
168.881
168.881
168.881
168.881
168.881
168.881
168.881
168.881
168.881
168.881
168.881
168.881
168.881
168.881
168.881
168.881
168.881
168.881
168.881
168.881
168.881
168.881
168.881
168.881
168.881
168.881
168.881
168.881
168.881
168.881
168.881
168.881
168.881
168.881
168.881
168.881
168.881
168.881
168.881
168.881
168.881
168.881
168.881
168.881
168.881
168.881
168.881
168.881
168.881
168.881
168.881
168.881
168.881
168.881
168.881
168.881
168.881
168.881
168.881
168.881
168.881
168.881
168.881
168.881
168.881
168.881
168.881
168.881
168.881
168.881
168.881
168.881
168.881
168.881
168.881
168.881
168.881
168.881
168.881
168.881
168.881
168.881
168.881
168.881
168.881
168.881
168.881
168.881
168.881
168.881
168.881
168.881
168.881
168.881
168.881
168.881
168.881
168.881
168.881
168.881
168.881
168.881
168.881
168.881
168.881
168.881
168.881
168.881
168.881
168.881
168.881
168.881
168.881
168.881
168.881
168.881
168.881
168.881
168.881
168.881
168.881
168.881
168.881
168.881
168.881
168.881
168.881
168.881
168.881
168.881
168.881
168.881
168.881
168.881
168.881
168.881
168.881
168.881
168.881
168.881
168.881
168.881
168.881
168.881
168.881
168.881
168.881
168.881
168.881
168.881
168.881
168.881
168.881
168.881
168.881
168.881
168.881
168.881
168.881
168.881
168.881
168.881
168.881
168.881
168.881
168.881
168.881
168.881
168.881
168.881
168.881
168.881
168.881
168.881
168.881
168.881
)
;

boundaryField
{
    topWall
    {
        type            empty;
    }
    bottomWall
    {
        type            empty;
    }
    leftAndRight_half1
    {
        type            cyclic;
    }
    leftAndRight_half0
    {
        type            cyclic;
    }
    frontAndBack
    {
        type            empty;
    }
}


// ************************************************************************* //
