/*--------------------------------*- C++ -*----------------------------------*\
  =========                 |
  \\      /  F ield         | OpenFOAM: The Open Source CFD Toolbox
   \\    /   O peration     | Website:  https://openfoam.org
    \\  /    A nd           | Version:  9
     \\/     M anipulation  |
\*---------------------------------------------------------------------------*/
FoamFile
{
    format      ascii;
    class       volScalarField;
    location    "0.15";
    object      f_2;
}
// * * * * * * * * * * * * * * * * * * * * * * * * * * * * * * * * * * * * * //

dimensions      [1 -3 0 0 0 0 0];

internalField   nonuniform List<scalar> 
1000
(
164.481
164.481
164.481
164.481
164.481
164.481
164.481
164.481
164.481
164.481
164.481
164.481
164.481
164.481
164.481
164.481
164.481
164.481
164.481
164.481
164.481
164.481
164.481
164.481
164.481
164.481
164.481
164.481
164.481
164.481
164.481
164.481
164.481
164.481
164.481
164.481
164.481
164.481
164.481
164.481
164.481
164.481
164.481
164.481
164.481
164.481
164.481
164.481
164.481
164.481
164.481
164.481
164.481
164.481
164.481
164.481
164.481
164.481
164.481
164.481
164.481
164.481
164.481
164.481
164.481
164.481
164.481
164.481
164.481
164.481
164.481
164.481
164.481
164.481
164.481
164.481
164.481
164.481
164.481
164.481
164.481
164.481
164.481
164.481
164.481
164.481
164.481
164.481
164.481
164.481
164.481
164.481
164.481
164.481
164.481
164.481
164.481
164.481
164.481
164.481
164.481
164.481
164.481
164.481
164.481
164.481
164.481
164.481
164.481
164.481
164.481
164.481
164.481
164.481
164.481
164.481
164.481
164.481
164.481
164.481
164.481
164.481
164.481
164.481
164.481
164.481
164.481
164.481
164.481
164.481
164.481
164.481
164.481
164.481
164.481
164.481
164.481
164.481
164.481
164.481
164.481
164.481
164.481
164.481
164.481
164.481
164.481
164.481
164.481
164.481
164.481
164.481
164.481
164.481
164.481
164.481
164.481
164.481
164.481
164.481
164.481
164.481
164.481
164.481
164.481
164.481
164.481
164.481
164.481
164.481
164.481
164.481
164.481
164.481
164.481
164.481
164.481
164.481
164.481
164.481
164.481
164.481
164.481
164.481
164.481
164.481
164.481
164.481
164.481
164.481
164.481
164.481
164.481
164.481
164.481
164.481
164.481
164.481
164.481
164.481
164.481
164.481
164.481
164.481
164.481
164.481
164.481
164.481
164.481
164.481
164.481
164.481
164.481
164.481
164.481
164.481
164.481
164.481
164.481
164.481
164.481
164.481
164.481
164.481
164.481
164.481
164.481
164.481
164.481
164.481
164.481
164.481
164.481
164.481
164.481
164.481
164.481
164.481
164.481
164.481
164.481
164.481
164.481
164.481
164.481
164.481
164.481
164.481
164.481
164.481
164.481
164.481
164.481
164.481
164.481
164.481
164.481
164.481
164.481
164.481
164.481
164.481
164.481
164.481
164.481
164.481
164.481
164.481
164.481
164.481
164.481
164.48
164.48
164.48
164.48
164.48
164.48
164.48
164.48
164.48
164.48
164.479
164.479
164.479
164.479
164.479
164.479
164.478
164.478
164.478
164.477
164.477
164.477
164.476
164.476
164.476
164.475
164.475
164.474
164.474
164.473
164.472
164.472
164.471
164.47
164.469
164.468
164.467
164.466
164.465
164.464
164.462
164.461
164.46
164.458
164.456
164.454
164.452
164.45
164.448
164.446
164.443
164.441
164.438
164.435
164.432
164.428
164.425
164.421
164.417
164.413
164.408
164.404
164.399
164.393
164.388
164.382
164.376
164.369
164.362
164.355
164.347
164.339
164.331
164.322
164.312
164.302
164.292
164.281
164.27
164.258
164.245
164.232
164.219
164.204
164.19
164.174
164.158
164.141
164.123
164.104
164.085
164.065
164.044
164.023
164
163.977
163.952
163.927
163.901
163.873
163.845
163.816
163.785
163.754
163.722
163.688
163.653
163.617
163.58
163.542
163.503
163.462
163.42
163.377
163.332
163.287
163.239
163.191
163.141
163.09
163.037
162.983
162.928
162.871
162.813
162.753
162.692
162.629
162.565
162.499
162.432
162.364
162.293
162.222
162.149
162.074
161.998
161.92
161.84
161.76
161.677
161.593
161.508
161.421
161.332
161.242
161.15
161.057
160.963
160.867
160.769
160.67
160.569
160.467
160.363
160.258
160.152
160.044
159.935
159.824
159.712
159.598
159.483
159.367
159.249
159.13
159.009
158.888
158.765
158.64
158.515
158.388
158.26
158.131
158
157.868
157.735
157.601
157.466
157.33
157.193
157.054
156.914
156.774
156.632
156.489
156.346
156.201
156.055
155.909
155.761
155.613
155.464
155.313
155.162
155.01
154.858
154.704
154.55
154.395
154.239
154.082
153.925
153.767
153.608
153.449
153.289
153.128
152.967
152.805
152.642
152.479
152.316
152.152
151.987
151.822
151.656
151.49
151.324
151.157
150.989
150.822
150.654
150.485
150.316
150.147
149.978
149.808
149.638
149.468
149.297
149.126
148.955
148.784
148.613
148.441
148.269
148.097
147.926
147.753
147.581
147.409
147.237
147.065
146.893
146.72
146.548
146.376
146.204
146.032
145.86
145.689
145.517
145.346
145.175
145.004
144.833
144.663
144.493
144.324
144.154
143.986
143.817
143.649
143.482
143.315
143.149
142.984
142.819
142.655
142.491
142.329
142.167
142.007
141.847
141.688
141.531
141.375
141.22
141.066
140.914
140.764
140.615
140.468
140.323
140.18
140.039
139.901
139.765
139.631
139.501
139.373
139.249
139.128
139.01
138.897
138.788
138.683
138.583
138.488
138.399
138.316
138.238
138.168
138.104
138.049
138.001
137.962
137.933
137.913
137.904
137.906
137.92
137.947
137.987
138.042
138.111
138.197
138.3
138.42
138.559
138.717
138.896
139.096
139.319
139.564
139.832
140.125
140.442
140.784
141.152
141.544
141.962
142.405
142.873
143.364
143.878
144.414
144.97
145.544
146.136
146.742
147.361
147.99
148.627
149.27
149.914
150.559
151.201
151.838
152.467
153.087
153.694
154.287
154.864
155.424
155.965
156.486
156.987
157.467
157.925
158.361
158.775
159.167
159.538
159.888
160.217
160.526
160.816
161.088
161.341
161.577
161.798
162.003
162.193
162.37
162.534
162.686
162.827
162.957
163.077
163.188
163.291
163.386
163.473
163.553
163.627
163.696
163.758
163.816
163.869
163.918
163.963
164.005
164.043
164.078
164.11
164.14
164.167
164.192
164.215
164.237
164.256
164.274
164.291
164.306
164.32
164.333
164.344
164.355
164.365
164.375
164.383
164.391
164.398
164.405
164.411
164.416
164.421
164.426
164.431
164.435
164.438
164.442
164.445
164.448
164.45
164.453
164.455
164.457
164.459
164.461
164.463
164.464
164.465
164.467
164.468
164.469
164.47
164.471
164.472
164.473
164.473
164.474
164.474
164.475
164.476
164.476
164.476
164.477
164.477
164.478
164.478
164.478
164.478
164.479
164.479
164.479
164.479
164.479
164.48
164.48
164.48
164.48
164.48
164.48
164.48
164.48
164.48
164.48
164.481
164.481
164.481
164.481
164.481
164.481
164.481
164.481
164.481
164.481
164.481
164.481
164.481
164.481
164.481
164.481
164.481
164.481
164.481
164.481
164.481
164.481
164.481
164.481
164.481
164.481
164.481
164.481
164.481
164.481
164.481
164.481
164.481
164.481
164.481
164.481
164.481
164.481
164.481
164.481
164.481
164.481
164.481
164.481
164.481
164.481
164.481
164.481
164.481
164.481
164.481
164.481
164.481
164.481
164.481
164.481
164.481
164.481
164.481
164.481
164.481
164.481
164.481
164.481
164.481
164.481
164.481
164.481
164.481
164.481
164.481
164.481
164.481
164.481
164.481
164.481
164.481
164.481
164.481
164.481
164.481
164.481
164.481
164.481
164.481
164.481
164.481
164.481
164.481
164.481
164.481
164.481
164.481
164.481
164.481
164.481
164.481
164.481
164.481
164.481
164.481
164.481
164.481
164.481
164.481
164.481
164.481
164.481
164.481
164.481
164.481
164.481
164.481
164.481
164.481
164.481
164.481
164.481
164.481
164.481
164.481
164.481
164.481
164.481
164.481
164.481
164.481
164.481
164.481
164.481
164.481
164.481
164.481
164.481
164.481
164.481
164.481
164.481
164.481
164.481
164.481
164.481
164.481
164.481
164.481
164.481
164.481
164.481
164.481
164.481
164.481
164.481
164.481
164.481
164.481
164.481
164.481
164.481
164.481
164.481
164.481
164.481
164.481
164.481
164.481
164.481
164.481
164.481
164.481
164.481
164.481
164.481
164.481
164.481
164.481
164.481
164.481
164.481
164.481
164.481
164.481
164.481
164.481
164.481
164.481
164.481
164.481
164.481
164.481
164.481
164.481
164.481
164.481
164.481
164.481
164.481
164.481
164.481
164.481
164.481
164.481
164.481
164.481
164.481
164.481
164.481
164.481
164.481
164.481
164.481
164.481
164.481
164.481
164.481
164.481
164.481
164.481
164.481
164.481
164.481
164.481
164.481
164.481
164.481
164.481
164.481
164.481
164.481
164.481
164.481
164.481
164.481
164.481
164.481
164.481
164.481
164.481
164.481
164.481
164.481
164.481
164.481
164.481
164.481
164.481
164.481
164.481
164.481
164.481
164.481
164.481
164.481
164.481
164.481
164.481
164.481
164.481
164.481
164.481
)
;

boundaryField
{
    topWall
    {
        type            empty;
    }
    bottomWall
    {
        type            empty;
    }
    leftAndRight_half1
    {
        type            cyclic;
    }
    leftAndRight_half0
    {
        type            cyclic;
    }
    frontAndBack
    {
        type            empty;
    }
}


// ************************************************************************* //
