/*--------------------------------*- C++ -*----------------------------------*\
  =========                 |
  \\      /  F ield         | OpenFOAM: The Open Source CFD Toolbox
   \\    /   O peration     | Website:  https://openfoam.org
    \\  /    A nd           | Version:  9
     \\/     M anipulation  |
\*---------------------------------------------------------------------------*/
FoamFile
{
    format      ascii;
    class       volScalarField;
    location    "0.15";
    object      p;
}
// * * * * * * * * * * * * * * * * * * * * * * * * * * * * * * * * * * * * * //

dimensions      [1 -1 -2 0 0 0 0];

internalField   nonuniform List<scalar> 
1000
(
100097
100097
100097
100097
100097
100097
100097
100097
100097
100097
100097
100097
100097
100097
100097
100097
100097
100097
100097
100097
100097
100097
100097
100097
100097
100097
100097
100097
100097
100097
100097
100097
100097
100097
100097
100097
100097
100097
100097
100097
100097
100097
100097
100097
100097
100097
100097
100097
100097
100097
100097
100097
100097
100097
100097
100097
100097
100097
100097
100097
100097
100097
100097
100097
100097
100097
100097
100097
100097
100097
100097
100097
100097
100097
100097
100097
100097
100097
100097
100097
100097
100097
100097
100097
100097
100097
100097
100097
100097
100097
100097
100097
100097
100097
100097
100097
100097
100097
100097
100097
100097
100097
100097
100097
100097
100097
100097
100097
100097
100097
100097
100097
100097
100097
100097
100097
100097
100097
100097
100097
100097
100097
100097
100097
100097
100097
100097
100097
100097
100097
100097
100097
100097
100097
100097
100097
100097
100097
100097
100097
100097
100097
100097
100097
100097
100097
100097
100097
100097
100097
100097
100097
100097
100097
100097
100097
100097
100097
100097
100097
100097
100097
100097
100097
100097
100097
100097
100097
100097
100097
100097
100097
100097
100097
100097
100097
100097
100097
100097
100097
100097
100097
100097
100097
100097
100097
100097
100097
100097
100097
100097
100097
100097
100097
100097
100097
100097
100097
100097
100097
100097
100097
100097
100097
100097
100097
100097
100097
100097
100097
100097
100097
100097
100097
100097
100097
100097
100097
100097
100097
100097
100097
100097
100097
100097
100097
100097
100097
100097
100097
100097
100097
100097
100097
100097
100097
100097
100097
100097
100097
100097
100097
100097
100097
100097
100097
100097
100097
100097
100097
100097
100097
100097
100097
100097
100097
100097
100097
100097
100097
100096
100096
100096
100096
100096
100096
100096
100096
100096
100096
100096
100096
100096
100096
100096
100096
100096
100095
100095
100095
100095
100095
100095
100095
100094
100094
100094
100094
100093
100093
100093
100093
100092
100092
100091
100091
100091
100090
100090
100089
100089
100088
100087
100087
100086
100085
100084
100083
100082
100081
100080
100079
100078
100077
100075
100074
100072
100071
100069
100067
100065
100063
100061
100059
100057
100054
100052
100049
100046
100043
100040
100037
100033
100029
100026
100022
100018
100013
100009
100004
99999.2
99994.1
99988.8
99983.2
99977.5
99971.5
99965.4
99959
99952.3
99945.4
99938.3
99930.9
99923.3
99915.5
99907.3
99899
99890.3
99881.5
99872.3
99862.9
99853.3
99843.4
99833.2
99822.8
99812.1
99801.2
99790.1
99778.7
99767
99755.2
99743.1
99730.8
99718.2
99705.5
99692.6
99679.5
99666.2
99652.7
99639.1
99625.3
99611.4
99597.4
99583.3
99569
99554.7
99540.4
99526
99511.6
99497.1
99482.7
99468.3
99453.9
99439.6
99425.4
99411.3
99397.3
99383.5
99369.8
99356.4
99343.1
99330.2
99317.4
99305
99292.9
99281.2
99269.8
99258.8
99248.2
99238.1
99228.5
99219.4
99210.8
99202.8
99195.3
99188.5
99182.3
99176.8
99172
99167.9
99164.6
99162
99160.3
99159.4
99159.4
99160.2
99162
99164.8
99168.5
99173.2
99178.9
99185.7
99193.6
99202.6
99212.8
99224
99236.5
99250.2
99265.1
99281.3
99298.8
99317.6
99337.7
99359.2
99382
99406.3
99431.9
99459.1
99487.6
99517.7
99549.3
99582.4
99617.1
99653.3
99691.1
99730.5
99771.6
99814.3
99858.6
99904.6
99952.4
100002
100053
100106
100161
100217
100275
100335
100397
100461
100526
100594
100663
100734
100807
100882
100959
101038
101118
101201
101286
101372
101461
101551
101644
101739
101835
101934
102034
102137
102242
102348
102457
102568
102681
102796
102913
103032
103153
103276
103402
103529
103658
103790
103924
104059
104197
104337
104479
104623
104770
104918
105068
105221
105375
105532
105691
105851
106014
106179
106346
106515
106686
106859
107035
107212
107391
107572
107755
107940
108128
108317
108508
108701
108896
109093
109291
109492
109694
109899
110105
110313
110522
110734
110947
111162
111378
111596
111816
112037
112260
112484
112710
112937
113166
113396
113627
113859
114092
114327
114562
114799
115036
115274
115513
115752
115992
116232
116472
116713
116953
117193
117433
117672
117911
118148
118384
118619
118852
119083
119312
119537
119760
119978
120193
120403
120607
120806
120998
121183
121359
121526
121683
121829
121962
122082
122187
122276
122347
122399
122429
122438
122422
122381
122312
122215
122087
121927
121735
121509
121248
120953
120622
120257
119858
119427
118963
118470
117950
117404
116837
116250
115648
115034
114411
113783
113153
112525
111902
111287
110682
110091
109515
108956
108415
107895
107396
106919
106464
106031
105621
105233
104867
104522
104199
103896
103612
103347
103100
102870
102655
102457
102272
102101
101943
101797
101661
101537
101421
101315
101217
101127
101044
100967
100897
100832
100772
100718
100667
100621
100579
100540
100504
100471
100441
100413
100388
100364
100343
100323
100305
100288
100273
100259
100246
100234
100223
100213
100204
100195
100187
100180
100174
100168
100162
100157
100152
100148
100144
100140
100137
100133
100131
100128
100125
100123
100121
100119
100117
100116
100114
100113
100112
100110
100109
100108
100107
100107
100106
100105
100104
100104
100103
100103
100102
100102
100101
100101
100101
100100
100100
100100
100099
100099
100099
100099
100099
100099
100098
100098
100098
100098
100098
100098
100098
100098
100098
100098
100097
100097
100097
100097
100097
100097
100097
100097
100097
100097
100097
100097
100097
100097
100097
100097
100097
100097
100097
100097
100097
100097
100097
100097
100097
100097
100097
100097
100097
100097
100097
100097
100097
100097
100097
100097
100097
100097
100097
100097
100097
100097
100097
100097
100097
100097
100097
100097
100097
100097
100097
100097
100097
100097
100097
100097
100097
100097
100097
100097
100097
100097
100097
100097
100097
100097
100097
100097
100097
100097
100097
100097
100097
100097
100097
100097
100097
100097
100097
100097
100097
100097
100097
100097
100097
100097
100097
100097
100097
100097
100097
100097
100097
100097
100097
100097
100097
100097
100097
100097
100097
100097
100097
100097
100097
100097
100097
100097
100097
100097
100097
100097
100097
100097
100097
100097
100097
100097
100097
100097
100097
100097
100097
100097
100097
100097
100097
100097
100097
100097
100097
100097
100097
100097
100097
100097
100097
100097
100097
100097
100097
100097
100097
100097
100097
100097
100097
100097
100097
100097
100097
100097
100097
100097
100097
100097
100097
100097
100097
100097
100097
100097
100097
100097
100097
100097
100097
100097
100097
100097
100097
100097
100097
100097
100097
100097
100097
100097
100097
100097
100097
100097
100097
100097
100097
100097
100097
100097
100097
100097
100097
100097
100097
100097
100097
100097
100097
100097
100097
100097
100097
100097
100097
100097
100097
100097
100097
100097
100097
100097
100097
100097
100097
100097
100097
100097
100097
100097
100097
100097
100097
100097
100097
100097
100097
100097
100097
100097
100097
100097
100097
100097
100097
100097
100097
100097
100097
100097
100097
100097
100097
100097
100097
100097
100097
100097
100097
100097
100097
100097
100097
100097
100097
)
;

boundaryField
{
    topWall
    {
        type            empty;
    }
    bottomWall
    {
        type            empty;
    }
    leftAndRight_half1
    {
        type            cyclic;
    }
    leftAndRight_half0
    {
        type            cyclic;
    }
    frontAndBack
    {
        type            empty;
    }
}


// ************************************************************************* //
