/*--------------------------------*- C++ -*----------------------------------*\
  =========                 |
  \\      /  F ield         | OpenFOAM: The Open Source CFD Toolbox
   \\    /   O peration     | Website:  https://openfoam.org
    \\  /    A nd           | Version:  9
     \\/     M anipulation  |
\*---------------------------------------------------------------------------*/
FoamFile
{
    format      ascii;
    class       volVectorField;
    location    "0.15";
    object      U;
}
// * * * * * * * * * * * * * * * * * * * * * * * * * * * * * * * * * * * * * //

dimensions      [0 1 -1 0 0 0 0];

internalField   nonuniform List<vector> 
1000
(
(0.439989 0 0)
(0.439989 0 0)
(0.439989 0 0)
(0.439989 0 0)
(0.439989 0 0)
(0.439989 0 0)
(0.439989 0 0)
(0.439989 0 0)
(0.439989 0 0)
(0.439989 0 0)
(0.439989 0 0)
(0.439989 0 0)
(0.439989 0 0)
(0.439989 0 0)
(0.439989 0 0)
(0.439989 0 0)
(0.439989 0 0)
(0.439989 0 0)
(0.439989 0 0)
(0.439989 0 0)
(0.439989 0 0)
(0.439989 0 0)
(0.439989 0 0)
(0.439989 0 0)
(0.439989 0 0)
(0.439989 0 0)
(0.439989 0 0)
(0.439989 0 0)
(0.439989 0 0)
(0.439989 0 0)
(0.439989 0 0)
(0.439989 0 0)
(0.439989 0 0)
(0.439989 0 0)
(0.439989 0 0)
(0.439989 0 0)
(0.439989 0 0)
(0.439989 0 0)
(0.439989 0 0)
(0.439989 0 0)
(0.439989 0 0)
(0.439989 0 0)
(0.439989 0 0)
(0.439989 0 0)
(0.439989 0 0)
(0.439989 0 0)
(0.439989 0 0)
(0.439989 0 0)
(0.439989 0 0)
(0.439989 0 0)
(0.439989 0 0)
(0.439989 0 0)
(0.439989 0 0)
(0.439989 0 0)
(0.439989 0 0)
(0.439989 0 0)
(0.439989 0 0)
(0.439989 0 0)
(0.439989 0 0)
(0.439989 0 0)
(0.439989 0 0)
(0.439989 0 0)
(0.439989 0 0)
(0.439989 0 0)
(0.439989 0 0)
(0.439989 0 0)
(0.439989 0 0)
(0.439989 0 0)
(0.439989 0 0)
(0.439989 0 0)
(0.439989 0 0)
(0.439989 0 0)
(0.439989 0 0)
(0.439989 0 0)
(0.439989 0 0)
(0.439989 0 0)
(0.439989 0 0)
(0.439989 0 0)
(0.439989 0 0)
(0.439989 0 0)
(0.439989 0 0)
(0.439989 0 0)
(0.439989 0 0)
(0.439989 0 0)
(0.439989 0 0)
(0.439989 0 0)
(0.439989 0 0)
(0.439989 0 0)
(0.439989 0 0)
(0.439989 0 0)
(0.439989 0 0)
(0.439989 0 0)
(0.439989 0 0)
(0.439989 0 0)
(0.439989 0 0)
(0.439989 0 0)
(0.439989 0 0)
(0.439989 0 0)
(0.439989 0 0)
(0.439989 0 0)
(0.439989 0 0)
(0.439989 0 0)
(0.439989 0 0)
(0.439989 0 0)
(0.439989 0 0)
(0.439989 0 0)
(0.439989 0 0)
(0.439989 0 0)
(0.439989 0 0)
(0.439989 0 0)
(0.439989 0 0)
(0.439989 0 0)
(0.439989 0 0)
(0.439989 0 0)
(0.439989 0 0)
(0.439989 0 0)
(0.439989 0 0)
(0.439989 0 0)
(0.439989 0 0)
(0.439989 0 0)
(0.439989 0 0)
(0.439989 0 0)
(0.439989 0 0)
(0.439989 0 0)
(0.439989 0 0)
(0.439989 0 0)
(0.439989 0 0)
(0.439989 0 0)
(0.439989 0 0)
(0.439989 0 0)
(0.439989 0 0)
(0.439989 0 0)
(0.439989 0 0)
(0.439989 0 0)
(0.439989 0 0)
(0.439989 0 0)
(0.439989 0 0)
(0.439989 0 0)
(0.439989 0 0)
(0.439989 0 0)
(0.439989 0 0)
(0.439989 0 0)
(0.439989 0 0)
(0.439989 0 0)
(0.439989 0 0)
(0.439989 0 0)
(0.439989 0 0)
(0.439989 0 0)
(0.439989 0 0)
(0.439989 0 0)
(0.439989 0 0)
(0.439989 0 0)
(0.439989 0 0)
(0.439989 0 0)
(0.439989 0 0)
(0.439989 0 0)
(0.439989 0 0)
(0.439989 0 0)
(0.439989 0 0)
(0.439989 0 0)
(0.439989 0 0)
(0.439989 0 0)
(0.439989 0 0)
(0.439989 0 0)
(0.439989 0 0)
(0.439989 0 0)
(0.439989 0 0)
(0.439989 0 0)
(0.439989 0 0)
(0.439989 0 0)
(0.439989 0 0)
(0.439989 0 0)
(0.439989 0 0)
(0.439989 0 0)
(0.439989 0 0)
(0.439989 0 0)
(0.439989 0 0)
(0.439989 0 0)
(0.439989 0 0)
(0.439989 0 0)
(0.439989 0 0)
(0.439989 0 0)
(0.439989 0 0)
(0.439989 0 0)
(0.439989 0 0)
(0.439989 0 0)
(0.439989 0 0)
(0.439989 0 0)
(0.439989 0 0)
(0.439989 0 0)
(0.439989 0 0)
(0.439989 0 0)
(0.439989 0 0)
(0.439989 0 0)
(0.439989 0 0)
(0.439989 0 0)
(0.439989 0 0)
(0.439989 0 0)
(0.439989 0 0)
(0.439989 0 0)
(0.439989 0 0)
(0.439989 0 0)
(0.439989 0 0)
(0.439989 0 0)
(0.439989 0 0)
(0.439989 0 0)
(0.439989 0 0)
(0.439989 0 0)
(0.439989 0 0)
(0.439989 0 0)
(0.439989 0 0)
(0.439989 0 0)
(0.439989 0 0)
(0.439989 0 0)
(0.439989 0 0)
(0.439989 0 0)
(0.439989 0 0)
(0.439989 0 0)
(0.43999 0 0)
(0.43999 0 0)
(0.43999 0 0)
(0.43999 0 0)
(0.43999 0 0)
(0.43999 0 0)
(0.43999 0 0)
(0.43999 0 0)
(0.43999 0 0)
(0.439991 0 0)
(0.439991 0 0)
(0.439991 0 0)
(0.439991 0 0)
(0.439991 0 0)
(0.439992 0 0)
(0.439992 0 0)
(0.439992 0 0)
(0.439993 0 0)
(0.439993 0 0)
(0.439994 0 0)
(0.439994 0 0)
(0.439995 0 0)
(0.439996 0 0)
(0.439996 0 0)
(0.439997 0 0)
(0.439998 0 0)
(0.439999 0 0)
(0.44 0 0)
(0.440001 0 0)
(0.440002 0 0)
(0.440004 0 0)
(0.440005 0 0)
(0.440007 0 0)
(0.440009 0 0)
(0.440011 0 0)
(0.440013 0 0)
(0.440016 0 0)
(0.440019 0 0)
(0.440022 0 0)
(0.440025 0 0)
(0.440028 0 0)
(0.440032 0 0)
(0.440037 0 0)
(0.440042 0 0)
(0.440047 0 0)
(0.440052 0 0)
(0.440059 0 0)
(0.440065 0 0)
(0.440073 0 0)
(0.440081 0 0)
(0.44009 0 0)
(0.440099 0 0)
(0.44011 0 0)
(0.440121 0 0)
(0.440134 0 0)
(0.440148 0 0)
(0.440162 0 0)
(0.440178 0 0)
(0.440196 0 0)
(0.440215 0 0)
(0.440236 0 0)
(0.440258 0 0)
(0.440282 0 0)
(0.440309 0 0)
(0.440338 0 0)
(0.440369 0 0)
(0.440402 0 0)
(0.440439 0 0)
(0.440478 0 0)
(0.440521 0 0)
(0.440567 0 0)
(0.440617 0 0)
(0.440671 0 0)
(0.440729 0 0)
(0.440792 0 0)
(0.44086 0 0)
(0.440933 0 0)
(0.441012 0 0)
(0.441096 0 0)
(0.441188 0 0)
(0.441286 0 0)
(0.441392 0 0)
(0.441506 0 0)
(0.441628 0 0)
(0.44176 0 0)
(0.441901 0 0)
(0.442052 0 0)
(0.442214 0 0)
(0.442389 0 0)
(0.442575 0 0)
(0.442775 0 0)
(0.442989 0 0)
(0.443218 0 0)
(0.443463 0 0)
(0.443725 0 0)
(0.444004 0 0)
(0.444303 0 0)
(0.444622 0 0)
(0.444962 0 0)
(0.445325 0 0)
(0.445712 0 0)
(0.446124 0 0)
(0.446563 0 0)
(0.447029 0 0)
(0.447526 0 0)
(0.448054 0 0)
(0.448615 0 0)
(0.449211 0 0)
(0.449843 0 0)
(0.450515 0 0)
(0.451226 0 0)
(0.451981 0 0)
(0.45278 0 0)
(0.453626 0 0)
(0.454522 0 0)
(0.45547 0 0)
(0.456471 0 0)
(0.45753 0 0)
(0.458648 0 0)
(0.459828 0 0)
(0.461074 0 0)
(0.462387 0 0)
(0.463771 0 0)
(0.465229 0 0)
(0.466764 0 0)
(0.46838 0 0)
(0.470079 0 0)
(0.471866 0 0)
(0.473743 0 0)
(0.475715 0 0)
(0.477784 0 0)
(0.479955 0 0)
(0.482232 0 0)
(0.484618 0 0)
(0.487118 0 0)
(0.489735 0 0)
(0.492473 0 0)
(0.495337 0 0)
(0.498331 0 0)
(0.50146 0 0)
(0.504727 0 0)
(0.508137 0 0)
(0.511695 0 0)
(0.515404 0 0)
(0.51927 0 0)
(0.523298 0 0)
(0.527491 0 0)
(0.531854 0 0)
(0.536392 0 0)
(0.54111 0 0)
(0.546013 0 0)
(0.551104 0 0)
(0.556389 0 0)
(0.561873 0 0)
(0.567559 0 0)
(0.573454 0 0)
(0.579561 0 0)
(0.585884 0 0)
(0.59243 0 0)
(0.599201 0 0)
(0.606203 0 0)
(0.61344 0 0)
(0.620916 0 0)
(0.628636 0 0)
(0.636604 0 0)
(0.644825 0 0)
(0.653301 0 0)
(0.662038 0 0)
(0.671039 0 0)
(0.680308 0 0)
(0.689849 0 0)
(0.699666 0 0)
(0.709761 0 0)
(0.720139 0 0)
(0.730803 0 0)
(0.741756 0 0)
(0.753001 0 0)
(0.764541 0 0)
(0.776379 0 0)
(0.788517 0 0)
(0.800959 0 0)
(0.813706 0 0)
(0.826761 0 0)
(0.840127 0 0)
(0.853804 0 0)
(0.867796 0 0)
(0.882103 0 0)
(0.896728 0 0)
(0.911671 0 0)
(0.926935 0 0)
(0.94252 0 0)
(0.958428 0 0)
(0.974659 0 0)
(0.991214 0 0)
(1.00809 0 0)
(1.0253 0 0)
(1.04283 0 0)
(1.06068 0 0)
(1.07887 0 0)
(1.09737 0 0)
(1.11621 0 0)
(1.13537 0 0)
(1.15485 0 0)
(1.17466 0 0)
(1.19479 0 0)
(1.21524 0 0)
(1.23602 0 0)
(1.25711 0 0)
(1.27853 0 0)
(1.30026 0 0)
(1.32231 0 0)
(1.34468 0 0)
(1.36736 0 0)
(1.39035 0 0)
(1.41365 0 0)
(1.43726 0 0)
(1.46118 0 0)
(1.4854 0 0)
(1.50993 0 0)
(1.53476 0 0)
(1.55988 0 0)
(1.5853 0 0)
(1.61101 0 0)
(1.63701 0 0)
(1.66331 0 0)
(1.68988 0 0)
(1.71675 0 0)
(1.74389 0 0)
(1.77131 0 0)
(1.799 0 0)
(1.82697 0 0)
(1.85521 0 0)
(1.88371 0 0)
(1.91248 0 0)
(1.9415 0 0)
(1.97079 0 0)
(2.00033 0 0)
(2.03012 0 0)
(2.06016 0 0)
(2.09044 0 0)
(2.12097 0 0)
(2.15174 0 0)
(2.18274 0 0)
(2.21398 0 0)
(2.24544 0 0)
(2.27714 0 0)
(2.30905 0 0)
(2.34119 0 0)
(2.37354 0 0)
(2.40611 0 0)
(2.43889 0 0)
(2.47187 0 0)
(2.50506 0 0)
(2.53845 0 0)
(2.57204 0 0)
(2.60582 0 0)
(2.63979 0 0)
(2.67395 0 0)
(2.7083 0 0)
(2.74283 0 0)
(2.77753 0 0)
(2.81241 0 0)
(2.84747 0 0)
(2.88269 0 0)
(2.91808 0 0)
(2.95362 0 0)
(2.98933 0 0)
(3.0252 0 0)
(3.06121 0 0)
(3.09738 0 0)
(3.13369 0 0)
(3.17014 0 0)
(3.20674 0 0)
(3.24347 0 0)
(3.28033 0 0)
(3.31733 0 0)
(3.35445 0 0)
(3.39169 0 0)
(3.42905 0 0)
(3.46653 0 0)
(3.50413 0 0)
(3.54183 0 0)
(3.57964 0 0)
(3.61755 0 0)
(3.65557 0 0)
(3.69368 0 0)
(3.73188 0 0)
(3.77017 0 0)
(3.80855 0 0)
(3.84701 0 0)
(3.88555 0 0)
(3.92417 0 0)
(3.96286 0 0)
(4.00161 0 0)
(4.04043 0 0)
(4.07931 0 0)
(4.11824 0 0)
(4.15723 0 0)
(4.19626 0 0)
(4.23534 0 0)
(4.27445 0 0)
(4.3136 0 0)
(4.35278 0 0)
(4.39199 0 0)
(4.43122 0 0)
(4.47046 0 0)
(4.50971 0 0)
(4.54896 0 0)
(4.58822 0 0)
(4.62746 0 0)
(4.6667 0 0)
(4.70591 0 0)
(4.7451 0 0)
(4.78426 0 0)
(4.82338 0 0)
(4.86245 0 0)
(4.90146 0 0)
(4.94042 0 0)
(4.9793 0 0)
(5.0181 0 0)
(5.05681 0 0)
(5.09541 0 0)
(5.13391 0 0)
(5.17229 0 0)
(5.21053 0 0)
(5.24862 0 0)
(5.28656 0 0)
(5.32432 0 0)
(5.36189 0 0)
(5.39926 0 0)
(5.4364 0 0)
(5.4733 0 0)
(5.50995 0 0)
(5.54631 0 0)
(5.58237 0 0)
(5.61811 0 0)
(5.65349 0 0)
(5.6885 0 0)
(5.7231 0 0)
(5.75726 0 0)
(5.79096 0 0)
(5.82415 0 0)
(5.85679 0 0)
(5.88886 0 0)
(5.92029 0 0)
(5.95106 0 0)
(5.9811 0 0)
(6.01036 0 0)
(6.03879 0 0)
(6.06633 0 0)
(6.09291 0 0)
(6.11846 0 0)
(6.1429 0 0)
(6.16616 0 0)
(6.18814 0 0)
(6.20876 0 0)
(6.22792 0 0)
(6.24551 0 0)
(6.26143 0 0)
(6.27555 0 0)
(6.28775 0 0)
(6.2979 0 0)
(6.30586 0 0)
(6.31147 0 0)
(6.31459 0 0)
(6.31504 0 0)
(6.31267 0 0)
(6.30728 0 0)
(6.2987 0 0)
(6.28673 0 0)
(6.27119 0 0)
(6.25186 0 0)
(6.22855 0 0)
(6.20106 0 0)
(6.16917 0 0)
(6.13269 0 0)
(6.09142 0 0)
(6.04518 0 0)
(5.99379 0 0)
(5.93709 0 0)
(5.87493 0 0)
(5.8072 0 0)
(5.73381 0 0)
(5.65468 0 0)
(5.56979 0 0)
(5.47916 0 0)
(5.38283 0 0)
(5.28091 0 0)
(5.17355 0 0)
(5.06093 0 0)
(4.94332 0 0)
(4.82102 0 0)
(4.69438 0 0)
(4.56381 0 0)
(4.42974 0 0)
(4.29269 0 0)
(4.15316 0 0)
(4.01171 0 0)
(3.86892 0 0)
(3.72538 0 0)
(3.58167 0 0)
(3.43839 0 0)
(3.29611 0 0)
(3.15538 0 0)
(3.01673 0 0)
(2.88066 0 0)
(2.7476 0 0)
(2.61797 0 0)
(2.49212 0 0)
(2.37035 0 0)
(2.25293 0 0)
(2.14004 0 0)
(2.03186 0 0)
(1.92848 0 0)
(1.82996 0 0)
(1.73633 0 0)
(1.64756 0 0)
(1.5636 0 0)
(1.48437 0 0)
(1.40976 0 0)
(1.33965 0 0)
(1.27388 0 0)
(1.21229 0 0)
(1.15472 0 0)
(1.10098 0 0)
(1.0509 0 0)
(1.00427 0 0)
(0.960932 0 0)
(0.920684 0 0)
(0.883349 0 0)
(0.84875 0 0)
(0.816715 0 0)
(0.787079 0 0)
(0.759683 0 0)
(0.734374 0 0)
(0.711009 0 0)
(0.689451 0 0)
(0.669569 0 0)
(0.651243 0 0)
(0.634356 0 0)
(0.618803 0 0)
(0.604481 0 0)
(0.591298 0 0)
(0.579166 0 0)
(0.568003 0 0)
(0.557735 0 0)
(0.54829 0 0)
(0.539603 0 0)
(0.531615 0 0)
(0.52427 0 0)
(0.517517 0 0)
(0.511307 0 0)
(0.505598 0 0)
(0.500349 0 0)
(0.495522 0 0)
(0.491084 0 0)
(0.487004 0 0)
(0.483251 0 0)
(0.4798 0 0)
(0.476626 0 0)
(0.473707 0 0)
(0.471022 0 0)
(0.468552 0 0)
(0.466279 0 0)
(0.464188 0 0)
(0.462264 0 0)
(0.460494 0 0)
(0.458864 0 0)
(0.457364 0 0)
(0.455983 0 0)
(0.454712 0 0)
(0.453542 0 0)
(0.452464 0 0)
(0.451472 0 0)
(0.450559 0 0)
(0.449717 0 0)
(0.448943 0 0)
(0.448229 0 0)
(0.447572 0 0)
(0.446966 0 0)
(0.446409 0 0)
(0.445895 0 0)
(0.445422 0 0)
(0.444987 0 0)
(0.444585 0 0)
(0.444216 0 0)
(0.443875 0 0)
(0.443562 0 0)
(0.443273 0 0)
(0.443007 0 0)
(0.442763 0 0)
(0.442537 0 0)
(0.44233 0 0)
(0.442139 0 0)
(0.441963 0 0)
(0.441801 0 0)
(0.441653 0 0)
(0.441516 0 0)
(0.44139 0 0)
(0.441274 0 0)
(0.441167 0 0)
(0.441069 0 0)
(0.440979 0 0)
(0.440896 0 0)
(0.44082 0 0)
(0.440751 0 0)
(0.440686 0 0)
(0.440627 0 0)
(0.440573 0 0)
(0.440524 0 0)
(0.440478 0 0)
(0.440436 0 0)
(0.440398 0 0)
(0.440363 0 0)
(0.44033 0 0)
(0.440301 0 0)
(0.440274 0 0)
(0.440249 0 0)
(0.440226 0 0)
(0.440205 0 0)
(0.440186 0 0)
(0.440169 0 0)
(0.440153 0 0)
(0.440138 0 0)
(0.440125 0 0)
(0.440113 0 0)
(0.440102 0 0)
(0.440092 0 0)
(0.440082 0 0)
(0.440074 0 0)
(0.440066 0 0)
(0.440059 0 0)
(0.440053 0 0)
(0.440047 0 0)
(0.440041 0 0)
(0.440037 0 0)
(0.440032 0 0)
(0.440028 0 0)
(0.440024 0 0)
(0.440021 0 0)
(0.440018 0 0)
(0.440015 0 0)
(0.440013 0 0)
(0.440011 0 0)
(0.440008 0 0)
(0.440007 0 0)
(0.440005 0 0)
(0.440003 0 0)
(0.440002 0 0)
(0.440001 0 0)
(0.44 0 0)
(0.439998 0 0)
(0.439998 0 0)
(0.439997 0 0)
(0.439996 0 0)
(0.439995 0 0)
(0.439995 0 0)
(0.439994 0 0)
(0.439994 0 0)
(0.439993 0 0)
(0.439993 0 0)
(0.439992 0 0)
(0.439992 0 0)
(0.439992 0 0)
(0.439991 0 0)
(0.439991 0 0)
(0.439991 0 0)
(0.439991 0 0)
(0.43999 0 0)
(0.43999 0 0)
(0.43999 0 0)
(0.43999 0 0)
(0.43999 0 0)
(0.43999 0 0)
(0.43999 0 0)
(0.43999 0 0)
(0.43999 0 0)
(0.43999 0 0)
(0.439989 0 0)
(0.439989 0 0)
(0.439989 0 0)
(0.439989 0 0)
(0.439989 0 0)
(0.439989 0 0)
(0.439989 0 0)
(0.439989 0 0)
(0.439989 0 0)
(0.439989 0 0)
(0.439989 0 0)
(0.439989 0 0)
(0.439989 0 0)
(0.439989 0 0)
(0.439989 0 0)
(0.439989 0 0)
(0.439989 0 0)
(0.439989 0 0)
(0.439989 0 0)
(0.439989 0 0)
(0.439989 0 0)
(0.439989 0 0)
(0.439989 0 0)
(0.439989 0 0)
(0.439989 0 0)
(0.439989 0 0)
(0.439989 0 0)
(0.439989 0 0)
(0.439989 0 0)
(0.439989 0 0)
(0.439989 0 0)
(0.439989 0 0)
(0.439989 0 0)
(0.439989 0 0)
(0.439989 0 0)
(0.439989 0 0)
(0.439989 0 0)
(0.439989 0 0)
(0.439989 0 0)
(0.439989 0 0)
(0.439989 0 0)
(0.439989 0 0)
(0.439989 0 0)
(0.439989 0 0)
(0.439989 0 0)
(0.439989 0 0)
(0.439989 0 0)
(0.439989 0 0)
(0.439989 0 0)
(0.439989 0 0)
(0.439989 0 0)
(0.439989 0 0)
(0.439989 0 0)
(0.439989 0 0)
(0.439989 0 0)
(0.439989 0 0)
(0.439989 0 0)
(0.439989 0 0)
(0.439989 0 0)
(0.439989 0 0)
(0.439989 0 0)
(0.439989 0 0)
(0.439989 0 0)
(0.439989 0 0)
(0.439989 0 0)
(0.439989 0 0)
(0.439989 0 0)
(0.439989 0 0)
(0.439989 0 0)
(0.439989 0 0)
(0.439989 0 0)
(0.439989 0 0)
(0.439989 0 0)
(0.439989 0 0)
(0.439989 0 0)
(0.439989 0 0)
(0.439989 0 0)
(0.439989 0 0)
(0.439989 0 0)
(0.439989 0 0)
(0.439989 0 0)
(0.439989 0 0)
(0.439989 0 0)
(0.439989 0 0)
(0.439989 0 0)
(0.439989 0 0)
(0.439989 0 0)
(0.439989 0 0)
(0.439989 0 0)
(0.439989 0 0)
(0.439989 0 0)
(0.439989 0 0)
(0.439989 0 0)
(0.439989 0 0)
(0.439989 0 0)
(0.439989 0 0)
(0.439989 0 0)
(0.439989 0 0)
(0.439989 0 0)
(0.439989 0 0)
(0.439989 0 0)
(0.439989 0 0)
(0.439989 0 0)
(0.439989 0 0)
(0.439989 0 0)
(0.439989 0 0)
(0.439989 0 0)
(0.439989 0 0)
(0.439989 0 0)
(0.439989 0 0)
(0.439989 0 0)
(0.439989 0 0)
(0.439989 0 0)
(0.439989 0 0)
(0.439989 0 0)
(0.439989 0 0)
(0.439989 0 0)
(0.439989 0 0)
(0.439989 0 0)
(0.439989 0 0)
(0.439989 0 0)
(0.439989 0 0)
(0.439989 0 0)
(0.439989 0 0)
(0.439989 0 0)
(0.439989 0 0)
(0.439989 0 0)
(0.439989 0 0)
(0.439989 0 0)
(0.439989 0 0)
(0.439989 0 0)
(0.439989 0 0)
(0.439989 0 0)
(0.439989 0 0)
(0.439989 0 0)
(0.439989 0 0)
(0.439989 0 0)
(0.439989 0 0)
(0.439989 0 0)
(0.439989 0 0)
(0.439989 0 0)
(0.439989 0 0)
(0.439989 0 0)
(0.439989 0 0)
(0.439989 0 0)
(0.439989 0 0)
(0.439989 0 0)
(0.439989 0 0)
(0.439989 0 0)
(0.439989 0 0)
(0.439989 0 0)
(0.439989 0 0)
(0.439989 0 0)
(0.439989 0 0)
(0.439989 0 0)
(0.439989 0 0)
(0.439989 0 0)
(0.439989 0 0)
(0.439989 0 0)
(0.439989 0 0)
(0.439989 0 0)
(0.439989 0 0)
(0.439989 0 0)
(0.439989 0 0)
(0.439989 0 0)
(0.439989 0 0)
(0.439989 0 0)
(0.439989 0 0)
(0.439989 0 0)
(0.439989 0 0)
(0.439989 0 0)
(0.439989 0 0)
(0.439989 0 0)
(0.439989 0 0)
(0.439989 0 0)
(0.439989 0 0)
(0.439989 0 0)
(0.439989 0 0)
(0.439989 0 0)
(0.439989 0 0)
(0.439989 0 0)
(0.439989 0 0)
(0.439989 0 0)
(0.439989 0 0)
(0.439989 0 0)
(0.439989 0 0)
(0.439989 0 0)
(0.439989 0 0)
(0.439989 0 0)
(0.439989 0 0)
(0.439989 0 0)
(0.439989 0 0)
(0.439989 0 0)
(0.439989 0 0)
(0.439989 0 0)
(0.439989 0 0)
(0.439989 0 0)
(0.439989 0 0)
(0.439989 0 0)
(0.439989 0 0)
(0.439989 0 0)
(0.439989 0 0)
(0.439989 0 0)
(0.439989 0 0)
)
;

boundaryField
{
    topWall
    {
        type            empty;
    }
    bottomWall
    {
        type            empty;
    }
    leftAndRight_half1
    {
        type            cyclic;
    }
    leftAndRight_half0
    {
        type            cyclic;
    }
    frontAndBack
    {
        type            empty;
    }
}


// ************************************************************************* //
