/*--------------------------------*- C++ -*----------------------------------*\
  =========                 |
  \\      /  F ield         | OpenFOAM: The Open Source CFD Toolbox
   \\    /   O peration     | Website:  https://openfoam.org
    \\  /    A nd           | Version:  9
     \\/     M anipulation  |
\*---------------------------------------------------------------------------*/
FoamFile
{
    format      ascii;
    class       volScalarField;
    location    "0.55";
    object      f_0;
}
// * * * * * * * * * * * * * * * * * * * * * * * * * * * * * * * * * * * * * //

dimensions      [1 -3 0 0 0 0 0];

internalField   nonuniform List<scalar> 
1000
(
666.667
666.667
666.667
666.667
666.667
666.667
666.667
666.667
666.667
666.667
666.667
666.667
666.667
666.667
666.667
666.667
666.667
666.667
666.667
666.667
666.667
666.667
666.667
666.667
666.667
666.667
666.667
666.667
666.667
666.667
666.667
666.667
666.667
666.667
666.667
666.667
666.667
666.667
666.667
666.667
666.667
666.667
666.667
666.667
666.667
666.667
666.667
666.667
666.667
666.667
666.667
666.667
666.667
666.667
666.667
666.667
666.667
666.667
666.667
666.667
666.667
666.667
666.667
666.667
666.667
666.667
666.667
666.667
666.667
666.667
666.667
666.667
666.667
666.667
666.667
666.667
666.667
666.667
666.667
666.667
666.667
666.667
666.667
666.667
666.667
666.667
666.667
666.667
666.667
666.667
666.667
666.667
666.667
666.667
666.667
666.667
666.667
666.667
666.667
666.667
666.667
666.667
666.667
666.667
666.667
666.667
666.667
666.667
666.667
666.667
666.667
666.667
666.667
666.667
666.667
666.667
666.667
666.667
666.667
666.667
666.667
666.667
666.667
666.667
666.667
666.667
666.667
666.667
666.667
666.667
666.667
666.667
666.667
666.667
666.667
666.667
666.667
666.667
666.667
666.667
666.667
666.667
666.667
666.667
666.667
666.667
666.667
666.667
666.667
666.667
666.667
666.667
666.667
666.667
666.667
666.667
666.667
666.667
666.667
666.667
666.667
666.667
666.667
666.667
666.667
666.667
666.667
666.667
666.667
666.667
666.667
666.667
666.667
666.667
666.667
666.667
666.667
666.667
666.667
666.667
666.667
666.667
666.667
666.667
666.667
666.667
666.667
666.667
666.667
666.667
666.667
666.667
666.666
666.666
666.666
666.666
666.666
666.666
666.666
666.666
666.666
666.666
666.666
666.666
666.666
666.666
666.666
666.666
666.666
666.666
666.666
666.666
666.666
666.666
666.666
666.666
666.666
666.666
666.666
666.666
666.666
666.666
666.666
666.666
666.666
666.666
666.666
666.666
666.666
666.666
666.666
666.666
666.666
666.666
666.666
666.666
666.666
666.665
666.665
666.665
666.665
666.665
666.665
666.665
666.665
666.665
666.665
666.665
666.665
666.665
666.665
666.665
666.665
666.664
666.664
666.664
666.664
666.664
666.664
666.664
666.664
666.664
666.664
666.664
666.663
666.663
666.663
666.663
666.663
666.663
666.663
666.663
666.662
666.662
666.662
666.662
666.662
666.662
666.662
666.661
666.661
666.661
666.661
666.661
666.661
666.66
666.66
666.66
666.66
666.66
666.659
666.659
666.659
666.659
666.659
666.658
666.658
666.658
666.658
666.657
666.657
666.657
666.657
666.656
666.656
666.656
666.655
666.655
666.655
666.655
666.654
666.654
666.654
666.653
666.653
666.653
666.652
666.652
666.652
666.651
666.651
666.651
666.65
666.65
666.649
666.649
666.649
666.648
666.648
666.647
666.647
666.647
666.646
666.646
666.645
666.645
666.644
666.644
666.644
666.643
666.643
666.642
666.642
666.641
666.641
666.64
666.64
666.639
666.639
666.638
666.638
666.637
666.637
666.636
666.636
666.635
666.635
666.634
666.633
666.633
666.632
666.632
666.631
666.631
666.63
666.629
666.629
666.628
666.628
666.627
666.627
666.626
666.625
666.625
666.624
666.624
666.623
666.622
666.622
666.621
666.62
666.62
666.619
666.619
666.618
666.617
666.617
666.616
666.616
666.615
666.614
666.614
666.613
666.612
666.612
666.611
666.61
666.61
666.609
666.609
666.608
666.607
666.607
666.606
666.605
666.605
666.604
666.603
666.603
666.602
666.602
666.601
666.6
666.6
666.599
666.598
666.598
666.597
666.597
666.596
666.595
666.595
666.594
666.593
666.593
666.592
666.592
666.591
666.59
666.59
666.589
666.589
666.588
666.587
666.587
666.586
666.586
666.585
666.584
666.584
666.583
666.583
666.582
666.582
666.581
666.58
666.58
666.579
666.579
666.578
666.578
666.577
666.577
666.576
666.575
666.575
666.574
666.574
666.573
666.573
666.572
666.572
666.571
666.571
666.57
666.57
666.569
666.569
666.568
666.568
666.567
666.567
666.566
666.566
666.565
666.565
666.564
666.564
666.564
666.563
666.563
666.562
666.562
666.561
666.561
666.56
666.56
666.56
666.559
666.559
666.558
666.558
666.558
666.557
666.557
666.556
666.556
666.556
666.555
666.555
666.554
666.554
666.554
666.553
666.553
666.552
666.552
666.552
666.551
666.551
666.551
666.55
666.55
666.55
666.549
666.549
666.549
666.548
666.548
666.548
666.547
666.547
666.547
666.546
666.546
666.546
666.546
666.545
666.545
666.545
666.544
666.544
666.544
666.543
666.543
666.543
666.543
666.542
666.542
666.542
666.542
666.541
666.541
666.541
666.541
666.54
666.54
666.54
666.54
666.539
666.539
666.539
666.539
666.538
666.538
666.538
666.538
666.538
666.537
666.537
666.537
666.537
666.537
666.536
666.536
666.536
666.536
666.536
666.535
666.535
666.535
666.535
666.535
666.535
666.534
666.534
666.534
666.534
666.534
666.534
666.534
666.533
666.533
666.533
666.533
666.533
666.533
666.533
666.533
666.532
666.532
666.532
666.532
666.532
666.532
666.532
666.532
666.532
666.532
666.532
666.532
666.532
666.531
666.531
666.531
666.531
666.531
666.531
666.531
666.531
666.531
666.531
666.531
666.531
666.531
666.531
666.532
666.532
666.532
666.532
666.532
666.532
666.532
666.532
666.532
666.532
666.533
666.533
666.533
666.533
666.533
666.534
666.534
666.534
666.534
666.535
666.535
666.535
666.536
666.536
666.537
666.537
666.538
666.538
666.539
666.539
666.54
666.54
666.541
666.542
666.542
666.543
666.544
666.545
666.546
666.547
666.548
666.549
666.55
666.551
666.552
666.553
666.555
666.556
666.558
666.559
666.561
666.562
666.564
666.566
666.568
666.57
666.572
666.575
666.577
666.58
666.582
666.585
666.588
666.591
666.594
666.597
666.601
666.605
666.608
666.612
666.617
666.621
666.626
666.63
666.635
666.641
666.646
666.652
666.658
666.664
666.67
666.677
666.684
666.691
666.699
666.707
666.715
666.723
666.732
666.741
666.75
666.76
666.77
666.78
666.791
666.802
666.813
666.825
666.837
666.849
666.861
666.874
666.887
666.9
666.913
666.927
666.94
666.954
666.968
666.982
666.996
667.01
667.024
667.037
667.051
667.064
667.077
667.09
667.103
667.115
667.126
667.138
667.148
667.158
667.168
667.176
667.184
667.192
667.198
667.204
667.208
667.212
667.215
667.217
667.218
667.218
667.218
667.216
667.214
667.21
667.206
667.201
667.196
667.189
667.182
667.174
667.166
667.156
667.147
667.137
667.127
667.116
667.105
667.093
667.082
667.07
667.058
667.046
667.034
667.022
667.01
666.998
666.986
666.974
666.963
666.951
666.94
666.929
666.919
666.908
666.898
666.888
666.878
666.869
666.86
666.851
666.842
666.834
666.826
666.818
666.811
666.804
666.797
666.791
666.784
666.778
666.773
666.767
666.762
666.757
666.752
666.747
666.743
666.739
666.735
666.731
666.728
666.724
666.721
666.718
666.715
666.712
666.71
666.707
666.705
666.703
666.701
666.699
666.697
666.695
666.693
666.692
666.69
666.689
666.688
666.686
666.685
666.684
666.683
666.682
666.681
666.68
666.679
666.679
666.678
666.677
666.677
666.676
666.675
666.675
666.674
666.674
666.673
666.673
666.673
666.672
666.672
666.671
666.671
666.671
666.671
666.67
666.67
666.67
666.67
666.669
666.669
666.669
666.669
666.669
666.669
666.669
666.668
666.668
666.668
666.668
666.668
666.668
666.668
666.668
666.668
666.668
666.668
666.667
666.667
666.667
666.667
666.667
666.667
666.667
666.667
666.667
666.667
666.667
666.667
666.667
666.667
666.667
666.667
666.667
666.667
666.667
666.667
666.667
666.667
666.667
666.667
666.667
666.667
666.667
666.667
666.667
666.667
666.667
666.667
666.667
666.667
666.667
666.667
666.667
666.667
666.667
666.667
666.667
666.667
666.667
666.667
666.667
666.667
666.667
666.667
666.667
666.667
666.667
666.667
666.667
666.667
666.667
666.667
666.667
666.667
666.667
666.667
666.667
666.667
666.667
666.667
666.667
666.667
666.667
666.667
666.667
666.667
666.667
666.667
666.667
666.667
666.667
666.667
666.667
666.667
666.667
666.667
666.667
666.667
666.667
666.667
666.667
666.667
666.667
666.667
666.667
666.667
666.667
666.667
666.667
666.667
666.667
666.667
666.667
666.667
666.667
666.667
666.667
666.667
666.667
666.667
666.667
666.667
666.667
666.667
666.667
666.667
666.667
666.667
666.667
666.667
666.667
666.667
666.667
666.667
666.667
666.667
666.667
)
;

boundaryField
{
    topWall
    {
        type            empty;
    }
    bottomWall
    {
        type            empty;
    }
    leftAndRight_half1
    {
        type            cyclic;
    }
    leftAndRight_half0
    {
        type            cyclic;
    }
    frontAndBack
    {
        type            empty;
    }
}


// ************************************************************************* //
