/*--------------------------------*- C++ -*----------------------------------*\
  =========                 |
  \\      /  F ield         | OpenFOAM: The Open Source CFD Toolbox
   \\    /   O peration     | Website:  https://openfoam.org
    \\  /    A nd           | Version:  9
     \\/     M anipulation  |
\*---------------------------------------------------------------------------*/
FoamFile
{
    format      ascii;
    class       volScalarField;
    location    "0.55";
    object      f_1;
}
// * * * * * * * * * * * * * * * * * * * * * * * * * * * * * * * * * * * * * //

dimensions      [1 -3 0 0 0 0 0];

internalField   nonuniform List<scalar> 
1000
(
168.881
168.881
168.881
168.881
168.881
168.881
168.881
168.881
168.881
168.881
168.881
168.881
168.881
168.881
168.881
168.881
168.881
168.881
168.881
168.881
168.881
168.881
168.881
168.881
168.881
168.881
168.881
168.881
168.881
168.881
168.881
168.881
168.881
168.881
168.881
168.881
168.881
168.881
168.881
168.881
168.881
168.881
168.881
168.881
168.881
168.881
168.881
168.881
168.881
168.881
168.881
168.881
168.881
168.881
168.881
168.881
168.881
168.881
168.881
168.881
168.881
168.881
168.881
168.881
168.881
168.881
168.881
168.881
168.881
168.881
168.881
168.881
168.881
168.881
168.881
168.881
168.881
168.881
168.881
168.881
168.881
168.881
168.881
168.881
168.881
168.881
168.881
168.881
168.881
168.881
168.881
168.881
168.881
168.881
168.881
168.881
168.881
168.881
168.881
168.881
168.881
168.881
168.881
168.881
168.881
168.881
168.881
168.881
168.881
168.881
168.881
168.881
168.881
168.881
168.881
168.881
168.881
168.881
168.881
168.881
168.881
168.881
168.881
168.881
168.881
168.881
168.881
168.881
168.881
168.881
168.881
168.881
168.881
168.881
168.881
168.881
168.881
168.881
168.881
168.881
168.881
168.881
168.881
168.881
168.881
168.881
168.881
168.881
168.881
168.881
168.881
168.881
168.881
168.881
168.881
168.881
168.881
168.881
168.881
168.881
168.881
168.881
168.882
168.882
168.882
168.882
168.882
168.882
168.882
168.882
168.882
168.882
168.882
168.882
168.882
168.882
168.882
168.882
168.882
168.882
168.882
168.882
168.882
168.882
168.882
168.882
168.882
168.882
168.882
168.883
168.883
168.883
168.883
168.883
168.883
168.883
168.883
168.883
168.883
168.883
168.884
168.884
168.884
168.884
168.884
168.884
168.884
168.885
168.885
168.885
168.885
168.885
168.886
168.886
168.886
168.886
168.886
168.887
168.887
168.887
168.887
168.888
168.888
168.888
168.889
168.889
168.889
168.89
168.89
168.891
168.891
168.892
168.892
168.893
168.893
168.894
168.894
168.895
168.895
168.896
168.897
168.897
168.898
168.899
168.899
168.9
168.901
168.902
168.903
168.904
168.904
168.905
168.906
168.908
168.909
168.91
168.911
168.912
168.913
168.915
168.916
168.917
168.919
168.92
168.922
168.923
168.925
168.927
168.929
168.93
168.932
168.934
168.936
168.938
168.94
168.943
168.945
168.947
168.95
168.952
168.955
168.957
168.96
168.963
168.966
168.969
168.972
168.975
168.979
168.982
168.985
168.989
168.993
168.997
169
169.004
169.009
169.013
169.017
169.022
169.026
169.031
169.036
169.041
169.046
169.051
169.057
169.062
169.068
169.074
169.08
169.086
169.092
169.099
169.106
169.112
169.119
169.126
169.134
169.141
169.149
169.157
169.165
169.173
169.181
169.19
169.199
169.208
169.217
169.226
169.236
169.245
169.255
169.266
169.276
169.287
169.298
169.309
169.32
169.332
169.343
169.355
169.368
169.38
169.393
169.406
169.419
169.433
169.446
169.46
169.475
169.489
169.504
169.519
169.534
169.55
169.566
169.582
169.598
169.615
169.632
169.649
169.667
169.685
169.703
169.721
169.74
169.759
169.778
169.798
169.818
169.838
169.858
169.879
169.9
169.922
169.943
169.965
169.988
170.011
170.033
170.057
170.08
170.104
170.129
170.153
170.178
170.203
170.229
170.255
170.281
170.307
170.334
170.361
170.389
170.417
170.445
170.473
170.502
170.531
170.561
170.591
170.621
170.651
170.682
170.713
170.745
170.776
170.809
170.841
170.874
170.907
170.94
170.974
171.008
171.043
171.077
171.113
171.148
171.184
171.22
171.256
171.293
171.33
171.367
171.405
171.443
171.481
171.52
171.559
171.598
171.638
171.678
171.718
171.759
171.8
171.841
171.883
171.925
171.967
172.009
172.052
172.095
172.138
172.182
172.226
172.271
172.315
172.36
172.405
172.451
172.497
172.543
172.589
172.636
172.683
172.73
172.778
172.826
172.874
172.922
172.971
173.02
173.069
173.119
173.169
173.219
173.269
173.32
173.371
173.422
173.474
173.525
173.577
173.63
173.682
173.735
173.788
173.842
173.895
173.949
174.003
174.057
174.112
174.167
174.222
174.277
174.333
174.389
174.445
174.501
174.558
174.615
174.672
174.729
174.786
174.844
174.902
174.96
175.019
175.077
175.136
175.195
175.255
175.314
175.374
175.434
175.494
175.555
175.615
175.676
175.737
175.798
175.86
175.921
175.983
176.045
176.107
176.17
176.233
176.295
176.358
176.422
176.485
176.549
176.613
176.677
176.741
176.805
176.87
176.934
176.999
177.064
177.13
177.195
177.261
177.326
177.392
177.458
177.525
177.591
177.658
177.725
177.792
177.859
177.926
177.994
178.061
178.129
178.197
178.265
178.333
178.401
178.47
178.539
178.608
178.676
178.746
178.815
178.884
178.954
179.024
179.093
179.163
179.233
179.304
179.374
179.444
179.515
179.586
179.657
179.728
179.799
179.87
179.942
180.013
180.085
180.156
180.228
180.3
180.372
180.444
180.517
180.589
180.662
180.734
180.807
180.88
180.953
181.025
181.099
181.172
181.245
181.318
181.392
181.465
181.539
181.613
181.686
181.76
181.834
181.908
181.982
182.056
182.13
182.204
182.279
182.353
182.427
182.501
182.576
182.65
182.725
182.799
182.874
182.948
183.023
183.097
183.172
183.247
183.321
183.396
183.47
183.545
183.619
183.694
183.768
183.842
183.917
183.991
184.065
184.139
184.213
184.287
184.361
184.434
184.508
184.581
184.655
184.728
184.801
184.873
184.946
185.018
185.09
185.162
185.234
185.305
185.376
185.446
185.517
185.587
185.656
185.726
185.794
185.863
185.931
185.998
186.065
186.131
186.197
186.262
186.326
186.39
186.453
186.515
186.577
186.637
186.697
186.755
186.813
186.87
186.925
186.98
187.033
187.085
187.136
187.185
187.232
187.279
187.323
187.366
187.407
187.446
187.483
187.518
187.551
187.582
187.61
187.636
187.659
187.679
187.697
187.712
187.723
187.732
187.737
187.738
187.736
187.73
187.72
187.706
187.688
187.665
187.637
187.605
187.568
187.526
187.478
187.425
187.366
187.302
187.231
187.154
187.071
186.982
186.886
186.783
186.673
186.556
186.432
186.3
186.161
186.015
185.861
185.7
185.531
185.355
185.171
184.979
184.78
184.573
184.359
184.138
183.91
183.676
183.434
183.187
182.933
182.674
182.409
182.139
181.865
181.586
181.303
181.017
180.728
180.436
180.143
179.848
179.551
179.255
178.958
178.662
178.366
178.072
177.78
177.49
177.203
176.919
176.639
176.362
176.09
175.823
175.56
175.303
175.05
174.804
174.564
174.329
174.101
173.878
173.663
173.453
173.25
173.054
172.864
172.68
172.503
172.332
172.168
172.01
171.857
171.711
171.571
171.436
171.307
171.184
171.066
170.953
170.845
170.742
170.643
170.55
170.46
170.375
170.294
170.217
170.144
170.074
170.008
169.945
169.885
169.829
169.775
169.724
169.676
169.63
169.587
169.546
169.507
169.471
169.436
169.404
169.373
169.344
169.316
169.29
169.266
169.242
169.221
169.2
169.181
169.162
169.145
169.129
169.114
169.099
169.086
169.073
169.061
169.05
169.039
169.029
169.02
169.011
169.003
168.995
168.988
168.981
168.975
168.969
168.963
168.958
168.953
168.948
168.944
168.94
168.936
168.932
168.929
168.926
168.923
168.92
168.918
168.915
168.913
168.911
168.909
168.907
168.905
168.904
168.902
168.901
168.899
168.898
168.897
168.896
168.895
168.894
168.893
168.892
168.892
168.891
168.89
168.89
168.889
168.888
168.888
168.887
168.887
168.887
168.886
168.886
168.886
168.885
168.885
168.885
168.884
168.884
168.884
168.884
168.884
168.883
168.883
168.883
168.883
168.883
168.883
168.883
168.883
168.882
168.882
168.882
168.882
168.882
168.882
168.882
168.882
168.882
168.882
168.882
168.882
168.882
168.882
168.882
168.882
168.882
168.882
168.882
168.881
168.881
168.881
168.881
168.881
168.881
168.881
168.881
168.881
168.881
168.881
168.881
168.881
168.881
168.881
168.881
168.881
168.881
168.881
168.881
168.881
168.881
168.881
168.881
168.881
168.881
168.881
168.881
168.881
168.881
168.881
168.881
168.881
168.881
168.881
168.881
168.881
168.881
168.881
168.881
168.881
168.881
168.881
168.881
168.881
168.881
168.881
168.881
168.881
168.881
168.881
168.881
168.881
168.881
168.881
168.881
168.881
168.881
168.881
168.881
168.881
168.881
168.881
168.881
168.881
168.881
168.881
168.881
168.881
168.881
168.881
168.881
168.881
168.881
168.881
168.881
168.881
168.881
168.881
168.881
)
;

boundaryField
{
    topWall
    {
        type            empty;
    }
    bottomWall
    {
        type            empty;
    }
    leftAndRight_half1
    {
        type            cyclic;
    }
    leftAndRight_half0
    {
        type            cyclic;
    }
    frontAndBack
    {
        type            empty;
    }
}


// ************************************************************************* //
