/*--------------------------------*- C++ -*----------------------------------*\
  =========                 |
  \\      /  F ield         | OpenFOAM: The Open Source CFD Toolbox
   \\    /   O peration     | Website:  https://openfoam.org
    \\  /    A nd           | Version:  9
     \\/     M anipulation  |
\*---------------------------------------------------------------------------*/
FoamFile
{
    format      ascii;
    class       volScalarField;
    location    "0.55";
    object      f_2;
}
// * * * * * * * * * * * * * * * * * * * * * * * * * * * * * * * * * * * * * //

dimensions      [1 -3 0 0 0 0 0];

internalField   nonuniform List<scalar> 
1000
(
164.481
164.481
164.481
164.481
164.481
164.481
164.481
164.481
164.481
164.481
164.481
164.481
164.481
164.481
164.481
164.481
164.481
164.481
164.481
164.481
164.481
164.481
164.481
164.481
164.481
164.481
164.481
164.481
164.481
164.481
164.481
164.481
164.481
164.481
164.481
164.481
164.481
164.481
164.481
164.481
164.481
164.481
164.481
164.481
164.481
164.481
164.481
164.481
164.481
164.481
164.481
164.481
164.481
164.481
164.481
164.481
164.481
164.481
164.481
164.481
164.481
164.481
164.481
164.481
164.481
164.481
164.481
164.481
164.481
164.481
164.481
164.481
164.481
164.481
164.481
164.481
164.481
164.481
164.481
164.481
164.481
164.481
164.481
164.481
164.481
164.481
164.481
164.481
164.481
164.481
164.481
164.481
164.481
164.481
164.481
164.481
164.481
164.481
164.481
164.481
164.481
164.481
164.481
164.481
164.481
164.481
164.481
164.481
164.481
164.481
164.481
164.481
164.481
164.481
164.481
164.481
164.481
164.481
164.481
164.481
164.481
164.481
164.481
164.481
164.481
164.481
164.481
164.481
164.481
164.481
164.481
164.481
164.481
164.481
164.481
164.481
164.481
164.481
164.481
164.481
164.481
164.481
164.481
164.481
164.481
164.481
164.481
164.481
164.481
164.481
164.481
164.481
164.481
164.481
164.481
164.481
164.481
164.481
164.481
164.481
164.481
164.481
164.481
164.481
164.481
164.481
164.481
164.481
164.481
164.481
164.481
164.481
164.481
164.481
164.48
164.48
164.48
164.48
164.48
164.48
164.48
164.48
164.48
164.48
164.48
164.48
164.48
164.48
164.48
164.48
164.48
164.479
164.479
164.479
164.479
164.479
164.479
164.479
164.479
164.479
164.479
164.478
164.478
164.478
164.478
164.478
164.478
164.477
164.477
164.477
164.477
164.477
164.476
164.476
164.476
164.476
164.475
164.475
164.475
164.475
164.474
164.474
164.474
164.473
164.473
164.473
164.472
164.472
164.471
164.471
164.47
164.47
164.469
164.469
164.468
164.468
164.467
164.467
164.466
164.465
164.465
164.464
164.463
164.462
164.461
164.461
164.46
164.459
164.458
164.457
164.456
164.455
164.454
164.453
164.452
164.45
164.449
164.448
164.447
164.445
164.444
164.442
164.441
164.439
164.437
164.436
164.434
164.432
164.43
164.428
164.426
164.424
164.422
164.42
164.418
164.415
164.413
164.411
164.408
164.405
164.403
164.4
164.397
164.394
164.391
164.388
164.384
164.381
164.378
164.374
164.37
164.367
164.363
164.359
164.355
164.351
164.346
164.342
164.337
164.333
164.328
164.323
164.318
164.312
164.307
164.302
164.296
164.29
164.284
164.278
164.272
164.266
164.259
164.252
164.246
164.239
164.231
164.224
164.216
164.209
164.201
164.193
164.185
164.176
164.168
164.159
164.15
164.14
164.131
164.121
164.112
164.102
164.091
164.081
164.07
164.059
164.048
164.037
164.025
164.014
164.002
163.989
163.977
163.964
163.951
163.938
163.925
163.911
163.897
163.883
163.868
163.854
163.839
163.823
163.808
163.792
163.776
163.76
163.743
163.727
163.709
163.692
163.674
163.656
163.638
163.62
163.601
163.582
163.563
163.543
163.523
163.503
163.482
163.462
163.441
163.419
163.398
163.376
163.353
163.331
163.308
163.285
163.261
163.238
163.213
163.189
163.164
163.139
163.114
163.089
163.063
163.037
163.01
162.983
162.956
162.929
162.901
162.873
162.845
162.816
162.787
162.758
162.728
162.698
162.668
162.638
162.607
162.576
162.545
162.513
162.481
162.449
162.416
162.383
162.35
162.317
162.283
162.249
162.214
162.18
162.145
162.109
162.074
162.038
162.002
161.966
161.929
161.892
161.855
161.817
161.779
161.741
161.703
161.664
161.625
161.586
161.546
161.506
161.466
161.426
161.386
161.345
161.304
161.262
161.22
161.179
161.136
161.094
161.051
161.008
160.965
160.922
160.878
160.834
160.79
160.745
160.701
160.656
160.611
160.565
160.52
160.474
160.428
160.381
160.335
160.288
160.241
160.194
160.146
160.099
160.051
160.003
159.954
159.906
159.857
159.808
159.759
159.71
159.66
159.61
159.56
159.51
159.46
159.409
159.358
159.307
159.256
159.205
159.153
159.102
159.05
158.998
158.946
158.893
158.841
158.788
158.735
158.682
158.629
158.575
158.522
158.468
158.414
158.36
158.306
158.251
158.197
158.142
158.087
158.032
157.977
157.922
157.866
157.811
157.755
157.699
157.643
157.587
157.531
157.474
157.418
157.361
157.304
157.248
157.191
157.133
157.076
157.019
156.961
156.904
156.846
156.788
156.73
156.672
156.614
156.555
156.497
156.438
156.38
156.321
156.262
156.203
156.144
156.085
156.026
155.967
155.907
155.848
155.788
155.729
155.669
155.609
155.549
155.489
155.429
155.369
155.309
155.248
155.188
155.128
155.067
155.006
154.946
154.885
154.824
154.763
154.702
154.641
154.58
154.519
154.458
154.397
154.336
154.274
154.213
154.152
154.09
154.029
153.967
153.905
153.844
153.782
153.72
153.659
153.597
153.535
153.473
153.411
153.349
153.287
153.225
153.163
153.101
153.039
152.977
152.915
152.853
152.791
152.729
152.667
152.605
152.543
152.481
152.419
152.356
152.294
152.232
152.17
152.108
152.046
151.984
151.923
151.861
151.799
151.737
151.675
151.614
151.552
151.49
151.429
151.367
151.306
151.245
151.183
151.122
151.061
151
150.939
150.879
150.818
150.758
150.697
150.637
150.577
150.517
150.457
150.398
150.338
150.279
150.22
150.161
150.103
150.045
149.987
149.929
149.871
149.814
149.757
149.701
149.644
149.589
149.533
149.478
149.423
149.369
149.315
149.262
149.209
149.157
149.105
149.054
149.003
148.953
148.904
148.855
148.808
148.761
148.714
148.669
148.624
148.581
148.538
148.496
148.456
148.416
148.378
148.341
148.305
148.271
148.238
148.206
148.176
148.148
148.121
148.096
148.073
148.052
148.033
148.016
148.001
147.989
147.979
147.971
147.966
147.964
147.964
147.968
147.974
147.984
147.997
148.014
148.034
148.058
148.085
148.117
148.153
148.193
148.238
148.287
148.341
148.399
148.463
148.532
148.606
148.686
148.771
148.862
148.959
149.061
149.17
149.285
149.405
149.533
149.666
149.806
149.952
150.105
150.264
150.43
150.602
150.78
150.964
151.155
151.351
151.553
151.761
151.974
152.193
152.416
152.645
152.877
153.114
153.355
153.599
153.846
154.096
154.348
154.602
154.857
155.114
155.371
155.628
155.886
156.142
156.398
156.652
156.905
157.155
157.402
157.647
157.888
158.126
158.36
158.59
158.816
159.037
159.253
159.464
159.67
159.871
160.066
160.256
160.44
160.619
160.792
160.959
161.121
161.278
161.428
161.574
161.713
161.848
161.977
162.101
162.22
162.334
162.444
162.548
162.648
162.744
162.835
162.922
163.005
163.084
163.16
163.232
163.3
163.365
163.427
163.485
163.541
163.594
163.644
163.692
163.737
163.779
163.82
163.858
163.894
163.928
163.961
163.991
164.02
164.048
164.074
164.098
164.121
164.143
164.163
164.182
164.2
164.218
164.234
164.249
164.263
164.277
164.289
164.301
164.312
164.323
164.333
164.342
164.351
164.359
164.367
164.374
164.381
164.387
164.393
164.399
164.404
164.409
164.414
164.418
164.422
164.426
164.43
164.433
164.436
164.439
164.442
164.445
164.447
164.449
164.451
164.453
164.455
164.457
164.459
164.46
164.462
164.463
164.464
164.465
164.466
164.467
164.468
164.469
164.47
164.471
164.472
164.472
164.473
164.473
164.474
164.474
164.475
164.475
164.476
164.476
164.477
164.477
164.477
164.477
164.478
164.478
164.478
164.478
164.479
164.479
164.479
164.479
164.479
164.479
164.48
164.48
164.48
164.48
164.48
164.48
164.48
164.48
164.48
164.48
164.48
164.48
164.481
164.481
164.481
164.481
164.481
164.481
164.481
164.481
164.481
164.481
164.481
164.481
164.481
164.481
164.481
164.481
164.481
164.481
164.481
164.481
164.481
164.481
164.481
164.481
164.481
164.481
164.481
164.481
164.481
164.481
164.481
164.481
164.481
164.481
164.481
164.481
164.481
164.481
164.481
164.481
164.481
164.481
164.481
164.481
164.481
164.481
164.481
164.481
164.481
164.481
164.481
164.481
164.481
164.481
164.481
164.481
164.481
164.481
164.481
164.481
164.481
164.481
164.481
164.481
164.481
164.481
164.481
164.481
164.481
164.481
164.481
164.481
164.481
164.481
164.481
164.481
164.481
164.481
164.481
164.481
164.481
164.481
164.481
164.481
164.481
164.481
164.481
164.481
164.481
164.481
164.481
164.481
164.481
164.481
)
;

boundaryField
{
    topWall
    {
        type            empty;
    }
    bottomWall
    {
        type            empty;
    }
    leftAndRight_half1
    {
        type            cyclic;
    }
    leftAndRight_half0
    {
        type            cyclic;
    }
    frontAndBack
    {
        type            empty;
    }
}


// ************************************************************************* //
