/*--------------------------------*- C++ -*----------------------------------*\
  =========                 |
  \\      /  F ield         | OpenFOAM: The Open Source CFD Toolbox
   \\    /   O peration     | Website:  https://openfoam.org
    \\  /    A nd           | Version:  9
     \\/     M anipulation  |
\*---------------------------------------------------------------------------*/
FoamFile
{
    format      ascii;
    class       volScalarField;
    location    "0.55";
    object      p;
}
// * * * * * * * * * * * * * * * * * * * * * * * * * * * * * * * * * * * * * //

dimensions      [1 -1 -2 0 0 0 0];

internalField   nonuniform List<scalar> 
1000
(
100097
100097
100097
100097
100097
100097
100097
100097
100097
100097
100097
100097
100097
100097
100097
100097
100097
100097
100097
100097
100097
100097
100097
100097
100097
100097
100097
100097
100097
100097
100097
100097
100097
100097
100097
100097
100097
100097
100097
100097
100097
100097
100097
100097
100097
100097
100097
100097
100097
100097
100097
100097
100097
100097
100097
100097
100097
100097
100097
100097
100097
100097
100097
100097
100097
100097
100097
100097
100097
100097
100097
100097
100097
100097
100097
100097
100097
100097
100097
100097
100097
100097
100097
100097
100097
100097
100097
100097
100097
100097
100097
100097
100097
100097
100097
100097
100097
100097
100097
100097
100097
100097
100097
100097
100097
100097
100097
100097
100097
100097
100097
100097
100097
100097
100097
100097
100097
100097
100097
100097
100097
100097
100097
100097
100097
100097
100097
100097
100097
100097
100097
100097
100097
100097
100097
100097
100097
100097
100097
100097
100097
100097
100097
100097
100097
100097
100097
100097
100097
100097
100097
100097
100097
100097
100097
100097
100097
100097
100097
100097
100097
100097
100097
100097
100097
100096
100096
100096
100096
100096
100096
100096
100096
100096
100096
100096
100096
100096
100096
100096
100096
100096
100096
100096
100096
100096
100096
100096
100096
100096
100096
100096
100096
100096
100096
100095
100095
100095
100095
100095
100095
100095
100095
100095
100095
100095
100095
100094
100094
100094
100094
100094
100094
100094
100094
100094
100093
100093
100093
100093
100093
100093
100092
100092
100092
100092
100092
100091
100091
100091
100091
100090
100090
100090
100090
100089
100089
100089
100088
100088
100088
100087
100087
100087
100086
100086
100086
100085
100085
100084
100084
100083
100083
100082
100082
100081
100081
100080
100080
100079
100078
100078
100077
100077
100076
100075
100074
100074
100073
100072
100071
100071
100070
100069
100068
100067
100066
100065
100064
100063
100062
100061
100060
100059
100058
100057
100056
100055
100053
100052
100051
100050
100048
100047
100046
100044
100043
100042
100040
100039
100037
100036
100034
100033
100031
100029
100028
100026
100024
100023
100021
100019
100017
100016
100014
100012
100010
100008
100006
100004
100002
100000
99998.1
99996.1
99994
99991.9
99989.8
99987.7
99985.6
99983.4
99981.2
99979.1
99976.9
99974.6
99972.4
99970.2
99967.9
99965.6
99963.3
99961.1
99958.8
99956.5
99954.1
99951.8
99949.5
99947.2
99944.8
99942.5
99940.2
99937.8
99935.5
99933.2
99930.9
99928.5
99926.2
99923.9
99921.6
99919.3
99917.1
99914.8
99912.5
99910.3
99908.1
99905.9
99903.7
99901.6
99899.5
99897.3
99895.3
99893.2
99891.2
99889.2
99887.3
99885.3
99883.4
99881.6
99879.8
99878
99876.3
99874.6
99873
99871.4
99869.8
99868.4
99866.9
99865.5
99864.2
99863
99861.8
99860.6
99859.5
99858.5
99857.6
99856.7
99855.9
99855.2
99854.5
99853.9
99853.4
99853
99852.6
99852.4
99852.2
99852.1
99852.1
99852.2
99852.4
99852.7
99853.1
99853.6
99854.1
99854.8
99855.6
99856.5
99857.5
99858.6
99859.8
99861.1
99862.6
99864.1
99865.8
99867.6
99869.5
99871.5
99873.7
99876
99878.4
99880.9
99883.6
99886.4
99889.4
99892.5
99895.7
99899
99902.5
99906.2
99909.9
99913.9
99917.9
99922.2
99926.5
99931.1
99935.7
99940.6
99945.5
99950.7
99956
99961.5
99967.1
99972.9
99978.8
99984.9
99991.2
99997.7
100004
100011
100018
100025
100032
100040
100048
100055
100063
100072
100080
100089
100097
100106
100115
100125
100134
100144
100154
100164
100174
100185
100195
100206
100217
100228
100240
100251
100263
100275
100287
100300
100313
100325
100338
100352
100365
100379
100393
100407
100421
100436
100450
100465
100480
100496
100511
100527
100543
100559
100576
100592
100609
100626
100644
100661
100679
100697
100715
100734
100752
100771
100790
100810
100829
100849
100869
100889
100910
100930
100951
100972
100994
101015
101037
101059
101081
101104
101127
101150
101173
101196
101220
101244
101268
101293
101317
101342
101367
101392
101418
101444
101470
101496
101523
101549
101576
101604
101631
101659
101687
101715
101743
101772
101801
101830
101860
101889
101919
101949
101980
102010
102041
102072
102103
102135
102167
102199
102231
102264
102296
102329
102363
102396
102430
102464
102498
102533
102567
102602
102638
102673
102709
102745
102781
102817
102854
102891
102928
102966
103003
103041
103079
103118
103156
103195
103234
103274
103313
103353
103393
103434
103474
103515
103556
103597
103639
103681
103723
103765
103808
103850
103893
103937
103980
104024
104068
104112
104156
104201
104246
104291
104336
104382
104428
104474
104520
104567
104613
104660
104708
104755
104803
104851
104899
104947
104996
105044
105093
105142
105192
105241
105291
105341
105392
105442
105493
105543
105594
105646
105697
105748
105800
105852
105904
105956
106009
106061
106114
106167
106220
106273
106326
106379
106433
106486
106540
106594
106648
106701
106755
106809
106863
106917
106971
107025
107079
107132
107186
107240
107293
107347
107400
107453
107506
107558
107610
107662
107714
107765
107816
107866
107916
107965
108013
108061
108108
108155
108200
108245
108288
108330
108372
108411
108450
108487
108523
108556
108588
108619
108647
108673
108696
108717
108736
108752
108765
108775
108782
108785
108785
108781
108773
108762
108746
108726
108701
108672
108638
108599
108554
108505
108451
108391
108326
108256
108180
108099
108012
107920
107823
107721
107613
107501
107383
107262
107136
107006
106872
106734
106593
106449
106303
106154
106003
105851
105697
105542
105387
105231
105075
104920
104766
104612
104460
104309
104160
104013
103869
103727
103587
103450
103317
103186
103059
102935
102814
102697
102583
102472
102366
102262
102163
102066
101974
101884
101798
101716
101636
101560
101487
101417
101350
101286
101225
101166
101110
101057
101006
100958
100911
100867
100826
100786
100748
100712
100678
100645
100615
100586
100558
100532
100507
100483
100461
100440
100420
100401
100384
100367
100351
100336
100322
100308
100296
100284
100272
100262
100252
100242
100234
100225
100217
100210
100203
100196
100190
100184
100179
100174
100169
100164
100160
100156
100152
100149
100146
100142
100139
100137
100134
100132
100129
100127
100125
100123
100122
100120
100119
100117
100116
100115
100113
100112
100111
100110
100109
100109
100108
100107
100106
100106
100105
100104
100104
100103
100103
100103
100102
100102
100101
100101
100101
100101
100100
100100
100100
100100
100099
100099
100099
100099
100099
100099
100098
100098
100098
100098
100098
100098
100098
100098
100098
100098
100098
100098
100097
100097
100097
100097
100097
100097
100097
100097
100097
100097
100097
100097
100097
100097
100097
100097
100097
100097
100097
100097
100097
100097
100097
100097
100097
100097
100097
100097
100097
100097
100097
100097
100097
100097
100097
100097
100097
100097
100097
100097
100097
100097
100097
100097
100097
100097
100097
100097
100097
100097
100097
100097
100097
100097
100097
100097
100097
100097
100097
100097
100097
100097
100097
100097
100097
100097
100097
100097
100097
100097
100097
100097
100097
100097
100097
100097
100097
100097
100097
100097
100097
100097
100097
100097
100097
100097
100097
100097
100097
100097
)
;

boundaryField
{
    topWall
    {
        type            empty;
    }
    bottomWall
    {
        type            empty;
    }
    leftAndRight_half1
    {
        type            cyclic;
    }
    leftAndRight_half0
    {
        type            cyclic;
    }
    frontAndBack
    {
        type            empty;
    }
}


// ************************************************************************* //
