/*--------------------------------*- C++ -*----------------------------------*\
  =========                 |
  \\      /  F ield         | OpenFOAM: The Open Source CFD Toolbox
   \\    /   O peration     | Website:  https://openfoam.org
    \\  /    A nd           | Version:  9
     \\/     M anipulation  |
\*---------------------------------------------------------------------------*/
FoamFile
{
    format      ascii;
    class       volVectorField;
    location    "0.55";
    object      U;
}
// * * * * * * * * * * * * * * * * * * * * * * * * * * * * * * * * * * * * * //

dimensions      [0 1 -1 0 0 0 0];

internalField   nonuniform List<vector> 
1000
(
(0.439989 0 0)
(0.439989 0 0)
(0.439989 0 0)
(0.439989 0 0)
(0.439989 0 0)
(0.439989 0 0)
(0.439989 0 0)
(0.439989 0 0)
(0.439989 0 0)
(0.439989 0 0)
(0.439989 0 0)
(0.439989 0 0)
(0.439989 0 0)
(0.439989 0 0)
(0.439989 0 0)
(0.439989 0 0)
(0.439989 0 0)
(0.439989 0 0)
(0.439989 0 0)
(0.439989 0 0)
(0.439989 0 0)
(0.439989 0 0)
(0.439989 0 0)
(0.439989 0 0)
(0.439989 0 0)
(0.439989 0 0)
(0.439989 0 0)
(0.439989 0 0)
(0.439989 0 0)
(0.439989 0 0)
(0.439989 0 0)
(0.439989 0 0)
(0.439989 0 0)
(0.439989 0 0)
(0.439989 0 0)
(0.439989 0 0)
(0.439989 0 0)
(0.439989 0 0)
(0.439989 0 0)
(0.439989 0 0)
(0.439989 0 0)
(0.439989 0 0)
(0.439989 0 0)
(0.439989 0 0)
(0.439989 0 0)
(0.439989 0 0)
(0.439989 0 0)
(0.439989 0 0)
(0.439989 0 0)
(0.439989 0 0)
(0.439989 0 0)
(0.439989 0 0)
(0.439989 0 0)
(0.439989 0 0)
(0.439989 0 0)
(0.439989 0 0)
(0.439989 0 0)
(0.439989 0 0)
(0.439989 0 0)
(0.439989 0 0)
(0.439989 0 0)
(0.439989 0 0)
(0.439989 0 0)
(0.439989 0 0)
(0.439989 0 0)
(0.439989 0 0)
(0.439989 0 0)
(0.439989 0 0)
(0.439989 0 0)
(0.439989 0 0)
(0.439989 0 0)
(0.439989 0 0)
(0.439989 0 0)
(0.439989 0 0)
(0.439989 0 0)
(0.439989 0 0)
(0.439989 0 0)
(0.439989 0 0)
(0.439989 0 0)
(0.439989 0 0)
(0.439989 0 0)
(0.439989 0 0)
(0.439989 0 0)
(0.439989 0 0)
(0.439989 0 0)
(0.439989 0 0)
(0.439989 0 0)
(0.43999 0 0)
(0.43999 0 0)
(0.43999 0 0)
(0.43999 0 0)
(0.43999 0 0)
(0.43999 0 0)
(0.43999 0 0)
(0.43999 0 0)
(0.43999 0 0)
(0.43999 0 0)
(0.43999 0 0)
(0.43999 0 0)
(0.43999 0 0)
(0.43999 0 0)
(0.43999 0 0)
(0.439991 0 0)
(0.439991 0 0)
(0.439991 0 0)
(0.439991 0 0)
(0.439991 0 0)
(0.439991 0 0)
(0.439991 0 0)
(0.439992 0 0)
(0.439992 0 0)
(0.439992 0 0)
(0.439992 0 0)
(0.439992 0 0)
(0.439993 0 0)
(0.439993 0 0)
(0.439993 0 0)
(0.439993 0 0)
(0.439994 0 0)
(0.439994 0 0)
(0.439994 0 0)
(0.439995 0 0)
(0.439995 0 0)
(0.439995 0 0)
(0.439996 0 0)
(0.439996 0 0)
(0.439997 0 0)
(0.439997 0 0)
(0.439998 0 0)
(0.439998 0 0)
(0.439999 0 0)
(0.44 0 0)
(0.44 0 0)
(0.440001 0 0)
(0.440002 0 0)
(0.440003 0 0)
(0.440004 0 0)
(0.440005 0 0)
(0.440005 0 0)
(0.440007 0 0)
(0.440008 0 0)
(0.440009 0 0)
(0.44001 0 0)
(0.440011 0 0)
(0.440013 0 0)
(0.440014 0 0)
(0.440016 0 0)
(0.440017 0 0)
(0.440019 0 0)
(0.440021 0 0)
(0.440023 0 0)
(0.440025 0 0)
(0.440027 0 0)
(0.440029 0 0)
(0.440032 0 0)
(0.440034 0 0)
(0.440037 0 0)
(0.44004 0 0)
(0.440043 0 0)
(0.440046 0 0)
(0.440049 0 0)
(0.440053 0 0)
(0.440056 0 0)
(0.44006 0 0)
(0.440064 0 0)
(0.440069 0 0)
(0.440073 0 0)
(0.440078 0 0)
(0.440083 0 0)
(0.440089 0 0)
(0.440094 0 0)
(0.4401 0 0)
(0.440107 0 0)
(0.440113 0 0)
(0.44012 0 0)
(0.440127 0 0)
(0.440135 0 0)
(0.440143 0 0)
(0.440152 0 0)
(0.440161 0 0)
(0.44017 0 0)
(0.44018 0 0)
(0.44019 0 0)
(0.440201 0 0)
(0.440213 0 0)
(0.440225 0 0)
(0.440237 0 0)
(0.440251 0 0)
(0.440265 0 0)
(0.440279 0 0)
(0.440295 0 0)
(0.440311 0 0)
(0.440328 0 0)
(0.440345 0 0)
(0.440364 0 0)
(0.440383 0 0)
(0.440404 0 0)
(0.440425 0 0)
(0.440447 0 0)
(0.440471 0 0)
(0.440496 0 0)
(0.440521 0 0)
(0.440548 0 0)
(0.440576 0 0)
(0.440606 0 0)
(0.440637 0 0)
(0.440669 0 0)
(0.440703 0 0)
(0.440738 0 0)
(0.440775 0 0)
(0.440814 0 0)
(0.440854 0 0)
(0.440896 0 0)
(0.44094 0 0)
(0.440987 0 0)
(0.441035 0 0)
(0.441085 0 0)
(0.441137 0 0)
(0.441192 0 0)
(0.441249 0 0)
(0.441308 0 0)
(0.441371 0 0)
(0.441435 0 0)
(0.441503 0 0)
(0.441573 0 0)
(0.441647 0 0)
(0.441723 0 0)
(0.441803 0 0)
(0.441886 0 0)
(0.441972 0 0)
(0.442062 0 0)
(0.442156 0 0)
(0.442254 0 0)
(0.442355 0 0)
(0.442461 0 0)
(0.442571 0 0)
(0.442685 0 0)
(0.442804 0 0)
(0.442927 0 0)
(0.443056 0 0)
(0.443189 0 0)
(0.443328 0 0)
(0.443472 0 0)
(0.443622 0 0)
(0.443777 0 0)
(0.443939 0 0)
(0.444106 0 0)
(0.44428 0 0)
(0.44446 0 0)
(0.444648 0 0)
(0.444842 0 0)
(0.445043 0 0)
(0.445252 0 0)
(0.445468 0 0)
(0.445693 0 0)
(0.445925 0 0)
(0.446166 0 0)
(0.446415 0 0)
(0.446674 0 0)
(0.446941 0 0)
(0.447218 0 0)
(0.447505 0 0)
(0.447801 0 0)
(0.448108 0 0)
(0.448426 0 0)
(0.448754 0 0)
(0.449093 0 0)
(0.449444 0 0)
(0.449807 0 0)
(0.450182 0 0)
(0.450569 0 0)
(0.450969 0 0)
(0.451383 0 0)
(0.451809 0 0)
(0.45225 0 0)
(0.452705 0 0)
(0.453174 0 0)
(0.453658 0 0)
(0.454158 0 0)
(0.454673 0 0)
(0.455205 0 0)
(0.455752 0 0)
(0.456317 0 0)
(0.456899 0 0)
(0.457499 0 0)
(0.458117 0 0)
(0.458753 0 0)
(0.459408 0 0)
(0.460083 0 0)
(0.460778 0 0)
(0.461493 0 0)
(0.462229 0 0)
(0.462986 0 0)
(0.463764 0 0)
(0.464565 0 0)
(0.465388 0 0)
(0.466235 0 0)
(0.467105 0 0)
(0.467999 0 0)
(0.468918 0 0)
(0.469861 0 0)
(0.470831 0 0)
(0.471826 0 0)
(0.472848 0 0)
(0.473897 0 0)
(0.474974 0 0)
(0.476078 0 0)
(0.477212 0 0)
(0.478374 0 0)
(0.479566 0 0)
(0.480789 0 0)
(0.482042 0 0)
(0.483326 0 0)
(0.484642 0 0)
(0.485991 0 0)
(0.487372 0 0)
(0.488787 0 0)
(0.490236 0 0)
(0.49172 0 0)
(0.493238 0 0)
(0.494792 0 0)
(0.496383 0 0)
(0.49801 0 0)
(0.499674 0 0)
(0.501376 0 0)
(0.503116 0 0)
(0.504896 0 0)
(0.506714 0 0)
(0.508573 0 0)
(0.510473 0 0)
(0.512413 0 0)
(0.514395 0 0)
(0.516419 0 0)
(0.518486 0 0)
(0.520596 0 0)
(0.52275 0 0)
(0.524948 0 0)
(0.527191 0 0)
(0.529479 0 0)
(0.531813 0 0)
(0.534193 0 0)
(0.53662 0 0)
(0.539095 0 0)
(0.541617 0 0)
(0.544188 0 0)
(0.546808 0 0)
(0.549477 0 0)
(0.552195 0 0)
(0.554964 0 0)
(0.557784 0 0)
(0.560655 0 0)
(0.563577 0 0)
(0.566552 0 0)
(0.569579 0 0)
(0.57266 0 0)
(0.575793 0 0)
(0.578981 0 0)
(0.582222 0 0)
(0.585519 0 0)
(0.58887 0 0)
(0.592277 0 0)
(0.59574 0 0)
(0.599259 0 0)
(0.602834 0 0)
(0.606466 0 0)
(0.610156 0 0)
(0.613903 0 0)
(0.617708 0 0)
(0.621572 0 0)
(0.625494 0 0)
(0.629475 0 0)
(0.633515 0 0)
(0.637614 0 0)
(0.641773 0 0)
(0.645993 0 0)
(0.650272 0 0)
(0.654612 0 0)
(0.659013 0 0)
(0.663475 0 0)
(0.667998 0 0)
(0.672582 0 0)
(0.677228 0 0)
(0.681936 0 0)
(0.686706 0 0)
(0.691538 0 0)
(0.696432 0 0)
(0.701389 0 0)
(0.706408 0 0)
(0.71149 0 0)
(0.716635 0 0)
(0.721843 0 0)
(0.727114 0 0)
(0.732449 0 0)
(0.737846 0 0)
(0.743307 0 0)
(0.748831 0 0)
(0.754419 0 0)
(0.76007 0 0)
(0.765785 0 0)
(0.771563 0 0)
(0.777405 0 0)
(0.78331 0 0)
(0.789279 0 0)
(0.795312 0 0)
(0.801408 0 0)
(0.807568 0 0)
(0.813791 0 0)
(0.820078 0 0)
(0.826428 0 0)
(0.832841 0 0)
(0.839318 0 0)
(0.845858 0 0)
(0.852461 0 0)
(0.859127 0 0)
(0.865855 0 0)
(0.872647 0 0)
(0.879501 0 0)
(0.886418 0 0)
(0.893398 0 0)
(0.900439 0 0)
(0.907543 0 0)
(0.914709 0 0)
(0.921937 0 0)
(0.929226 0 0)
(0.936577 0 0)
(0.943989 0 0)
(0.951462 0 0)
(0.958996 0 0)
(0.966591 0 0)
(0.974246 0 0)
(0.981962 0 0)
(0.989738 0 0)
(0.997574 0 0)
(1.00547 0 0)
(1.01342 0 0)
(1.02144 0 0)
(1.02951 0 0)
(1.03764 0 0)
(1.04583 0 0)
(1.05408 0 0)
(1.06239 0 0)
(1.07075 0 0)
(1.07917 0 0)
(1.08765 0 0)
(1.09619 0 0)
(1.10478 0 0)
(1.11343 0 0)
(1.12213 0 0)
(1.13089 0 0)
(1.13971 0 0)
(1.14858 0 0)
(1.1575 0 0)
(1.16648 0 0)
(1.17552 0 0)
(1.1846 0 0)
(1.19375 0 0)
(1.20294 0 0)
(1.21219 0 0)
(1.22149 0 0)
(1.23084 0 0)
(1.24025 0 0)
(1.2497 0 0)
(1.25921 0 0)
(1.26877 0 0)
(1.27838 0 0)
(1.28804 0 0)
(1.29775 0 0)
(1.30751 0 0)
(1.31732 0 0)
(1.32718 0 0)
(1.33709 0 0)
(1.34705 0 0)
(1.35705 0 0)
(1.3671 0 0)
(1.3772 0 0)
(1.38735 0 0)
(1.39754 0 0)
(1.40778 0 0)
(1.41807 0 0)
(1.4284 0 0)
(1.43877 0 0)
(1.4492 0 0)
(1.45966 0 0)
(1.47017 0 0)
(1.48073 0 0)
(1.49133 0 0)
(1.50197 0 0)
(1.51265 0 0)
(1.52338 0 0)
(1.53415 0 0)
(1.54497 0 0)
(1.55582 0 0)
(1.56672 0 0)
(1.57765 0 0)
(1.58863 0 0)
(1.59965 0 0)
(1.6107 0 0)
(1.6218 0 0)
(1.63294 0 0)
(1.64411 0 0)
(1.65533 0 0)
(1.66658 0 0)
(1.67787 0 0)
(1.6892 0 0)
(1.70057 0 0)
(1.71197 0 0)
(1.72341 0 0)
(1.73489 0 0)
(1.7464 0 0)
(1.75795 0 0)
(1.76953 0 0)
(1.78115 0 0)
(1.79281 0 0)
(1.8045 0 0)
(1.81622 0 0)
(1.82798 0 0)
(1.83977 0 0)
(1.85159 0 0)
(1.86345 0 0)
(1.87534 0 0)
(1.88726 0 0)
(1.89921 0 0)
(1.9112 0 0)
(1.92322 0 0)
(1.93527 0 0)
(1.94735 0 0)
(1.95946 0 0)
(1.9716 0 0)
(1.98377 0 0)
(1.99597 0 0)
(2.0082 0 0)
(2.02046 0 0)
(2.03275 0 0)
(2.04506 0 0)
(2.05741 0 0)
(2.06978 0 0)
(2.08218 0 0)
(2.09461 0 0)
(2.10706 0 0)
(2.11954 0 0)
(2.13205 0 0)
(2.14459 0 0)
(2.15715 0 0)
(2.16973 0 0)
(2.18234 0 0)
(2.19498 0 0)
(2.20764 0 0)
(2.22033 0 0)
(2.23304 0 0)
(2.24577 0 0)
(2.25853 0 0)
(2.27131 0 0)
(2.28411 0 0)
(2.29694 0 0)
(2.30979 0 0)
(2.32266 0 0)
(2.33556 0 0)
(2.34847 0 0)
(2.36141 0 0)
(2.37437 0 0)
(2.38735 0 0)
(2.40035 0 0)
(2.41337 0 0)
(2.42641 0 0)
(2.43947 0 0)
(2.45255 0 0)
(2.46565 0 0)
(2.47876 0 0)
(2.4919 0 0)
(2.50505 0 0)
(2.51822 0 0)
(2.53141 0 0)
(2.54462 0 0)
(2.55785 0 0)
(2.57109 0 0)
(2.58434 0 0)
(2.59762 0 0)
(2.61091 0 0)
(2.62421 0 0)
(2.63753 0 0)
(2.65086 0 0)
(2.66421 0 0)
(2.67758 0 0)
(2.69095 0 0)
(2.70434 0 0)
(2.71775 0 0)
(2.73116 0 0)
(2.74459 0 0)
(2.75803 0 0)
(2.77148 0 0)
(2.78494 0 0)
(2.79842 0 0)
(2.8119 0 0)
(2.82539 0 0)
(2.83889 0 0)
(2.85241 0 0)
(2.86593 0 0)
(2.87945 0 0)
(2.89299 0 0)
(2.90653 0 0)
(2.92008 0 0)
(2.93364 0 0)
(2.9472 0 0)
(2.96076 0 0)
(2.97433 0 0)
(2.98791 0 0)
(3.00148 0 0)
(3.01506 0 0)
(3.02864 0 0)
(3.04223 0 0)
(3.05581 0 0)
(3.06939 0 0)
(3.08297 0 0)
(3.09655 0 0)
(3.11013 0 0)
(3.12371 0 0)
(3.13728 0 0)
(3.15084 0 0)
(3.1644 0 0)
(3.17795 0 0)
(3.1915 0 0)
(3.20503 0 0)
(3.21856 0 0)
(3.23207 0 0)
(3.24557 0 0)
(3.25906 0 0)
(3.27253 0 0)
(3.28599 0 0)
(3.29943 0 0)
(3.31285 0 0)
(3.32624 0 0)
(3.33962 0 0)
(3.35298 0 0)
(3.3663 0 0)
(3.3796 0 0)
(3.39288 0 0)
(3.40612 0 0)
(3.41933 0 0)
(3.4325 0 0)
(3.44563 0 0)
(3.45873 0 0)
(3.47178 0 0)
(3.48479 0 0)
(3.49775 0 0)
(3.51067 0 0)
(3.52352 0 0)
(3.53633 0 0)
(3.54907 0 0)
(3.56175 0 0)
(3.57437 0 0)
(3.58691 0 0)
(3.59939 0 0)
(3.61178 0 0)
(3.62409 0 0)
(3.63632 0 0)
(3.64846 0 0)
(3.6605 0 0)
(3.67244 0 0)
(3.68428 0 0)
(3.696 0 0)
(3.70761 0 0)
(3.71909 0 0)
(3.73045 0 0)
(3.74166 0 0)
(3.75274 0 0)
(3.76366 0 0)
(3.77443 0 0)
(3.78503 0 0)
(3.79546 0 0)
(3.8057 0 0)
(3.81576 0 0)
(3.82561 0 0)
(3.83524 0 0)
(3.84466 0 0)
(3.85384 0 0)
(3.86278 0 0)
(3.87146 0 0)
(3.87988 0 0)
(3.88801 0 0)
(3.89584 0 0)
(3.90337 0 0)
(3.91057 0 0)
(3.91743 0 0)
(3.92393 0 0)
(3.93006 0 0)
(3.9358 0 0)
(3.94113 0 0)
(3.94604 0 0)
(3.9505 0 0)
(3.95449 0 0)
(3.95799 0 0)
(3.96098 0 0)
(3.96344 0 0)
(3.96535 0 0)
(3.96667 0 0)
(3.9674 0 0)
(3.96749 0 0)
(3.96692 0 0)
(3.96567 0 0)
(3.96371 0 0)
(3.96101 0 0)
(3.95755 0 0)
(3.95328 0 0)
(3.94819 0 0)
(3.94224 0 0)
(3.9354 0 0)
(3.92763 0 0)
(3.91892 0 0)
(3.90922 0 0)
(3.89851 0 0)
(3.88675 0 0)
(3.87391 0 0)
(3.85996 0 0)
(3.84487 0 0)
(3.82861 0 0)
(3.81115 0 0)
(3.79247 0 0)
(3.77253 0 0)
(3.75132 0 0)
(3.7288 0 0)
(3.70496 0 0)
(3.67979 0 0)
(3.65325 0 0)
(3.62535 0 0)
(3.59606 0 0)
(3.56538 0 0)
(3.53331 0 0)
(3.49984 0 0)
(3.46499 0 0)
(3.42875 0 0)
(3.39115 0 0)
(3.35219 0 0)
(3.3119 0 0)
(3.27031 0 0)
(3.22744 0 0)
(3.18334 0 0)
(3.13804 0 0)
(3.0916 0 0)
(3.04406 0 0)
(2.99548 0 0)
(2.94592 0 0)
(2.89545 0 0)
(2.84414 0 0)
(2.79206 0 0)
(2.73928 0 0)
(2.6859 0 0)
(2.632 0 0)
(2.57765 0 0)
(2.52296 0 0)
(2.468 0 0)
(2.41287 0 0)
(2.35767 0 0)
(2.30248 0 0)
(2.24738 0 0)
(2.19249 0 0)
(2.13786 0 0)
(2.08361 0 0)
(2.0298 0 0)
(1.97652 0 0)
(1.92384 0 0)
(1.87184 0 0)
(1.82058 0 0)
(1.77013 0 0)
(1.72055 0 0)
(1.67189 0 0)
(1.6242 0 0)
(1.57753 0 0)
(1.53191 0 0)
(1.48739 0 0)
(1.44398 0 0)
(1.40173 0 0)
(1.36064 0 0)
(1.32073 0 0)
(1.28202 0 0)
(1.2445 0 0)
(1.20819 0 0)
(1.17309 0 0)
(1.13918 0 0)
(1.10646 0 0)
(1.07492 0 0)
(1.04455 0 0)
(1.01533 0 0)
(0.987244 0 0)
(0.960268 0 0)
(0.934381 0 0)
(0.90956 0 0)
(0.88578 0 0)
(0.863014 0 0)
(0.841236 0 0)
(0.820417 0 0)
(0.800529 0 0)
(0.781543 0 0)
(0.76343 0 0)
(0.74616 0 0)
(0.729704 0 0)
(0.714033 0 0)
(0.699119 0 0)
(0.684931 0 0)
(0.671442 0 0)
(0.658624 0 0)
(0.64645 0 0)
(0.634892 0 0)
(0.623926 0 0)
(0.613524 0 0)
(0.603663 0 0)
(0.594318 0 0)
(0.585466 0 0)
(0.577084 0 0)
(0.56915 0 0)
(0.561643 0 0)
(0.554543 0 0)
(0.547831 0 0)
(0.541486 0 0)
(0.535491 0 0)
(0.529829 0 0)
(0.524482 0 0)
(0.519436 0 0)
(0.514673 0 0)
(0.51018 0 0)
(0.505943 0 0)
(0.501949 0 0)
(0.498183 0 0)
(0.494635 0 0)
(0.491292 0 0)
(0.488144 0 0)
(0.48518 0 0)
(0.48239 0 0)
(0.479764 0 0)
(0.477293 0 0)
(0.474969 0 0)
(0.472783 0 0)
(0.470728 0 0)
(0.468797 0 0)
(0.466981 0 0)
(0.465276 0 0)
(0.463673 0 0)
(0.462168 0 0)
(0.460755 0 0)
(0.459429 0 0)
(0.458184 0 0)
(0.457015 0 0)
(0.455919 0 0)
(0.454891 0 0)
(0.453927 0 0)
(0.453023 0 0)
(0.452175 0 0)
(0.451381 0 0)
(0.450636 0 0)
(0.449939 0 0)
(0.449285 0 0)
(0.448673 0 0)
(0.4481 0 0)
(0.447564 0 0)
(0.447062 0 0)
(0.446592 0 0)
(0.446152 0 0)
(0.445741 0 0)
(0.445356 0 0)
(0.444996 0 0)
(0.44466 0 0)
(0.444345 0 0)
(0.444051 0 0)
(0.443776 0 0)
(0.44352 0 0)
(0.44328 0 0)
(0.443056 0 0)
(0.442847 0 0)
(0.442651 0 0)
(0.442469 0 0)
(0.442298 0 0)
(0.44214 0 0)
(0.441991 0 0)
(0.441853 0 0)
(0.441724 0 0)
(0.441604 0 0)
(0.441491 0 0)
(0.441387 0 0)
(0.441289 0 0)
(0.441198 0 0)
(0.441114 0 0)
(0.441035 0 0)
(0.440961 0 0)
(0.440893 0 0)
(0.440829 0 0)
(0.440769 0 0)
(0.440714 0 0)
(0.440663 0 0)
(0.440615 0 0)
(0.44057 0 0)
(0.440529 0 0)
(0.44049 0 0)
(0.440454 0 0)
(0.440421 0 0)
(0.44039 0 0)
(0.440361 0 0)
(0.440334 0 0)
(0.440309 0 0)
(0.440286 0 0)
(0.440264 0 0)
(0.440244 0 0)
(0.440226 0 0)
(0.440208 0 0)
(0.440192 0 0)
(0.440178 0 0)
(0.440164 0 0)
(0.440151 0 0)
(0.440139 0 0)
(0.440128 0 0)
(0.440118 0 0)
(0.440108 0 0)
(0.440099 0 0)
(0.440091 0 0)
(0.440084 0 0)
(0.440077 0 0)
(0.44007 0 0)
(0.440064 0 0)
(0.440058 0 0)
(0.440053 0 0)
(0.440048 0 0)
(0.440044 0 0)
(0.44004 0 0)
(0.440036 0 0)
(0.440032 0 0)
(0.440029 0 0)
(0.440026 0 0)
(0.440023 0 0)
(0.440021 0 0)
(0.440018 0 0)
(0.440016 0 0)
(0.440014 0 0)
(0.440012 0 0)
(0.44001 0 0)
(0.440009 0 0)
(0.440007 0 0)
(0.440006 0 0)
(0.440004 0 0)
(0.440003 0 0)
(0.440002 0 0)
(0.440001 0 0)
(0.44 0 0)
(0.439999 0 0)
(0.439999 0 0)
(0.439998 0 0)
(0.439997 0 0)
(0.439996 0 0)
(0.439996 0 0)
(0.439995 0 0)
(0.439995 0 0)
(0.439994 0 0)
(0.439994 0 0)
(0.439994 0 0)
(0.439993 0 0)
(0.439993 0 0)
(0.439993 0 0)
(0.439992 0 0)
(0.439992 0 0)
(0.439992 0 0)
(0.439992 0 0)
(0.439991 0 0)
(0.439991 0 0)
(0.439991 0 0)
(0.439991 0 0)
(0.439991 0 0)
(0.439991 0 0)
(0.43999 0 0)
(0.43999 0 0)
(0.43999 0 0)
(0.43999 0 0)
(0.43999 0 0)
(0.43999 0 0)
(0.43999 0 0)
(0.43999 0 0)
(0.43999 0 0)
(0.43999 0 0)
(0.43999 0 0)
(0.43999 0 0)
(0.439989 0 0)
(0.439989 0 0)
(0.439989 0 0)
(0.439989 0 0)
(0.439989 0 0)
(0.439989 0 0)
(0.439989 0 0)
(0.439989 0 0)
(0.439989 0 0)
(0.439989 0 0)
(0.439989 0 0)
(0.439989 0 0)
(0.439989 0 0)
(0.439989 0 0)
(0.439989 0 0)
(0.439989 0 0)
(0.439989 0 0)
(0.439989 0 0)
(0.439989 0 0)
(0.439989 0 0)
(0.439989 0 0)
(0.439989 0 0)
(0.439989 0 0)
(0.439989 0 0)
)
;

boundaryField
{
    topWall
    {
        type            empty;
    }
    bottomWall
    {
        type            empty;
    }
    leftAndRight_half1
    {
        type            cyclic;
    }
    leftAndRight_half0
    {
        type            cyclic;
    }
    frontAndBack
    {
        type            empty;
    }
}


// ************************************************************************* //
