/*--------------------------------*- C++ -*----------------------------------*\
  =========                 |
  \\      /  F ield         | OpenFOAM: The Open Source CFD Toolbox
   \\    /   O peration     | Website:  https://openfoam.org
    \\  /    A nd           | Version:  9
     \\/     M anipulation  |
\*---------------------------------------------------------------------------*/
FoamFile
{
    format      ascii;
    class       volScalarField;
    location    "0.8";
    object      f_0;
}
// * * * * * * * * * * * * * * * * * * * * * * * * * * * * * * * * * * * * * //

dimensions      [1 -3 0 0 0 0 0];

internalField   nonuniform List<scalar> 
1000
(
666.667
666.667
666.667
666.667
666.667
666.667
666.667
666.667
666.667
666.667
666.667
666.667
666.667
666.667
666.667
666.667
666.667
666.667
666.667
666.667
666.667
666.667
666.667
666.667
666.667
666.667
666.667
666.667
666.667
666.667
666.667
666.667
666.667
666.667
666.667
666.667
666.667
666.667
666.667
666.667
666.667
666.667
666.667
666.667
666.667
666.667
666.667
666.667
666.667
666.667
666.667
666.667
666.667
666.667
666.667
666.667
666.667
666.667
666.667
666.667
666.667
666.667
666.667
666.667
666.667
666.667
666.667
666.667
666.667
666.667
666.667
666.667
666.667
666.667
666.667
666.667
666.667
666.667
666.667
666.667
666.667
666.667
666.667
666.667
666.667
666.667
666.667
666.667
666.667
666.667
666.667
666.667
666.667
666.667
666.667
666.667
666.667
666.667
666.667
666.667
666.667
666.667
666.667
666.667
666.667
666.667
666.667
666.667
666.667
666.667
666.667
666.667
666.667
666.667
666.667
666.667
666.667
666.667
666.667
666.667
666.667
666.667
666.667
666.667
666.667
666.667
666.667
666.667
666.667
666.667
666.667
666.667
666.667
666.667
666.667
666.667
666.667
666.667
666.667
666.667
666.667
666.667
666.667
666.667
666.667
666.667
666.667
666.667
666.667
666.667
666.667
666.667
666.667
666.667
666.667
666.667
666.667
666.667
666.667
666.666
666.666
666.666
666.666
666.666
666.666
666.666
666.666
666.666
666.666
666.666
666.666
666.666
666.666
666.666
666.666
666.666
666.666
666.666
666.666
666.666
666.666
666.666
666.666
666.666
666.666
666.666
666.666
666.666
666.666
666.666
666.666
666.666
666.666
666.666
666.666
666.666
666.666
666.666
666.666
666.666
666.666
666.666
666.666
666.666
666.666
666.666
666.666
666.666
666.666
666.666
666.666
666.666
666.666
666.666
666.665
666.665
666.665
666.665
666.665
666.665
666.665
666.665
666.665
666.665
666.665
666.665
666.665
666.665
666.665
666.665
666.665
666.665
666.665
666.665
666.665
666.664
666.664
666.664
666.664
666.664
666.664
666.664
666.664
666.664
666.664
666.664
666.664
666.664
666.663
666.663
666.663
666.663
666.663
666.663
666.663
666.663
666.663
666.663
666.663
666.662
666.662
666.662
666.662
666.662
666.662
666.662
666.662
666.662
666.661
666.661
666.661
666.661
666.661
666.661
666.661
666.66
666.66
666.66
666.66
666.66
666.66
666.66
666.659
666.659
666.659
666.659
666.659
666.659
666.658
666.658
666.658
666.658
666.658
666.657
666.657
666.657
666.657
666.657
666.656
666.656
666.656
666.656
666.656
666.655
666.655
666.655
666.655
666.655
666.654
666.654
666.654
666.654
666.653
666.653
666.653
666.653
666.652
666.652
666.652
666.652
666.651
666.651
666.651
666.651
666.65
666.65
666.65
666.649
666.649
666.649
666.649
666.648
666.648
666.648
666.647
666.647
666.647
666.646
666.646
666.646
666.646
666.645
666.645
666.645
666.644
666.644
666.644
666.643
666.643
666.643
666.642
666.642
666.642
666.641
666.641
666.641
666.64
666.64
666.64
666.639
666.639
666.639
666.638
666.638
666.637
666.637
666.637
666.636
666.636
666.636
666.635
666.635
666.635
666.634
666.634
666.634
666.633
666.633
666.632
666.632
666.632
666.631
666.631
666.631
666.63
666.63
666.629
666.629
666.629
666.628
666.628
666.628
666.627
666.627
666.626
666.626
666.626
666.625
666.625
666.624
666.624
666.624
666.623
666.623
666.623
666.622
666.622
666.621
666.621
666.621
666.62
666.62
666.62
666.619
666.619
666.618
666.618
666.618
666.617
666.617
666.617
666.616
666.616
666.615
666.615
666.615
666.614
666.614
666.614
666.613
666.613
666.613
666.612
666.612
666.612
666.611
666.611
666.61
666.61
666.61
666.609
666.609
666.609
666.608
666.608
666.608
666.607
666.607
666.607
666.606
666.606
666.606
666.605
666.605
666.605
666.604
666.604
666.604
666.603
666.603
666.603
666.602
666.602
666.602
666.601
666.601
666.601
666.6
666.6
666.6
666.6
666.599
666.599
666.599
666.598
666.598
666.598
666.597
666.597
666.597
666.597
666.596
666.596
666.596
666.595
666.595
666.595
666.595
666.594
666.594
666.594
666.594
666.593
666.593
666.593
666.592
666.592
666.592
666.592
666.591
666.591
666.591
666.591
666.59
666.59
666.59
666.59
666.589
666.589
666.589
666.589
666.588
666.588
666.588
666.588
666.588
666.587
666.587
666.587
666.587
666.586
666.586
666.586
666.586
666.586
666.585
666.585
666.585
666.585
666.584
666.584
666.584
666.584
666.584
666.583
666.583
666.583
666.583
666.583
666.582
666.582
666.582
666.582
666.582
666.582
666.581
666.581
666.581
666.581
666.581
666.58
666.58
666.58
666.58
666.58
666.58
666.579
666.579
666.579
666.579
666.579
666.579
666.578
666.578
666.578
666.578
666.578
666.578
666.578
666.577
666.577
666.577
666.577
666.577
666.577
666.577
666.576
666.576
666.576
666.576
666.576
666.576
666.576
666.575
666.575
666.575
666.575
666.575
666.575
666.575
666.575
666.575
666.574
666.574
666.574
666.574
666.574
666.574
666.574
666.574
666.574
666.573
666.573
666.573
666.573
666.573
666.573
666.573
666.573
666.573
666.573
666.572
666.572
666.572
666.572
666.572
666.572
666.572
666.572
666.572
666.572
666.572
666.572
666.572
666.571
666.571
666.571
666.571
666.571
666.571
666.571
666.571
666.571
666.571
666.571
666.571
666.571
666.571
666.571
666.571
666.571
666.571
666.571
666.571
666.571
666.571
666.571
666.571
666.571
666.571
666.571
666.571
666.571
666.571
666.571
666.571
666.571
666.571
666.571
666.571
666.571
666.571
666.571
666.571
666.571
666.571
666.572
666.572
666.572
666.572
666.572
666.572
666.572
666.572
666.572
666.573
666.573
666.573
666.573
666.573
666.574
666.574
666.574
666.574
666.575
666.575
666.575
666.575
666.576
666.576
666.576
666.577
666.577
666.577
666.578
666.578
666.579
666.579
666.58
666.58
666.581
666.581
666.582
666.583
666.583
666.584
666.585
666.585
666.586
666.587
666.588
666.589
666.589
666.59
666.591
666.592
666.593
666.594
666.596
666.597
666.598
666.599
666.601
666.602
666.604
666.605
666.607
666.608
666.61
666.612
666.614
666.616
666.618
666.62
666.622
666.624
666.627
666.629
666.632
666.634
666.637
666.64
666.643
666.646
666.649
666.652
666.656
666.659
666.663
666.667
666.671
666.675
666.679
666.683
666.688
666.692
666.697
666.702
666.707
666.713
666.718
666.724
666.729
666.735
666.741
666.747
666.754
666.76
666.767
666.774
666.781
666.788
666.795
666.803
666.81
666.818
666.826
666.834
666.842
666.85
666.858
666.866
666.874
666.883
666.891
666.899
666.908
666.916
666.924
666.932
666.941
666.949
666.956
666.964
666.972
666.979
666.986
666.993
667
667.007
667.013
667.019
667.024
667.029
667.034
667.038
667.042
667.046
667.049
667.052
667.054
667.056
667.057
667.058
667.059
667.059
667.058
667.057
667.056
667.054
667.052
667.049
667.046
667.043
667.039
667.035
667.03
667.026
667.02
667.015
667.009
667.003
666.997
666.991
666.984
666.978
666.971
666.964
666.957
666.95
666.943
666.935
666.928
666.921
666.914
666.907
666.899
666.892
666.885
666.878
666.872
666.865
666.858
666.852
666.845
666.839
666.833
666.827
666.821
666.815
666.809
666.804
666.799
666.793
666.788
666.784
666.779
666.774
666.77
666.766
666.761
666.757
666.754
666.75
666.746
666.743
666.739
666.736
666.733
666.73
666.727
666.725
666.722
666.719
666.717
666.715
666.712
666.71
666.708
666.706
666.704
666.703
666.701
666.699
666.698
666.696
666.695
666.693
666.692
666.691
666.69
666.688
666.687
666.686
666.685
666.684
666.684
666.683
666.682
666.681
666.68
666.68
666.679
666.678
666.678
666.677
666.677
666.676
666.676
666.675
666.675
666.674
666.674
666.673
666.673
666.673
666.672
666.672
666.672
666.672
666.671
666.671
666.671
666.671
666.67
666.67
666.67
666.67
666.67
666.669
666.669
666.669
666.669
666.669
666.669
666.669
666.669
666.668
666.668
666.668
666.668
666.668
666.668
666.668
666.668
666.668
666.668
666.668
666.668
666.668
666.667
666.667
666.667
666.667
666.667
666.667
666.667
666.667
666.667
666.667
666.667
666.667
666.667
666.667
666.667
666.667
666.667
666.667
666.667
666.667
666.667
666.667
666.667
666.667
666.667
666.667
666.667
666.667
666.667
666.667
666.667
666.667
666.667
666.667
666.667
666.667
666.667
666.667
666.667
666.667
)
;

boundaryField
{
    topWall
    {
        type            empty;
    }
    bottomWall
    {
        type            empty;
    }
    leftAndRight_half1
    {
        type            cyclic;
    }
    leftAndRight_half0
    {
        type            cyclic;
    }
    frontAndBack
    {
        type            empty;
    }
}


// ************************************************************************* //
