/*--------------------------------*- C++ -*----------------------------------*\
  =========                 |
  \\      /  F ield         | OpenFOAM: The Open Source CFD Toolbox
   \\    /   O peration     | Website:  https://openfoam.org
    \\  /    A nd           | Version:  9
     \\/     M anipulation  |
\*---------------------------------------------------------------------------*/
FoamFile
{
    format      ascii;
    class       volScalarField;
    location    "0.8";
    object      f_1;
}
// * * * * * * * * * * * * * * * * * * * * * * * * * * * * * * * * * * * * * //

dimensions      [1 -3 0 0 0 0 0];

internalField   nonuniform List<scalar> 
1000
(
168.882
168.882
168.882
168.882
168.882
168.882
168.882
168.882
168.882
168.882
168.881
168.881
168.881
168.881
168.881
168.881
168.881
168.881
168.881
168.881
168.881
168.881
168.881
168.881
168.881
168.881
168.881
168.881
168.881
168.881
168.881
168.881
168.881
168.881
168.881
168.881
168.881
168.881
168.881
168.881
168.881
168.881
168.881
168.881
168.881
168.881
168.881
168.881
168.881
168.881
168.881
168.881
168.881
168.881
168.881
168.881
168.881
168.881
168.881
168.881
168.881
168.881
168.881
168.881
168.881
168.881
168.881
168.881
168.881
168.881
168.881
168.881
168.881
168.881
168.881
168.881
168.881
168.881
168.881
168.881
168.881
168.881
168.881
168.881
168.881
168.881
168.881
168.881
168.881
168.881
168.881
168.881
168.881
168.881
168.881
168.881
168.881
168.881
168.881
168.881
168.881
168.881
168.881
168.881
168.881
168.881
168.881
168.881
168.881
168.881
168.881
168.881
168.881
168.881
168.881
168.881
168.881
168.881
168.882
168.882
168.882
168.882
168.882
168.882
168.882
168.882
168.882
168.882
168.882
168.882
168.882
168.882
168.882
168.882
168.882
168.882
168.882
168.882
168.882
168.882
168.882
168.882
168.882
168.882
168.882
168.882
168.882
168.882
168.882
168.882
168.883
168.883
168.883
168.883
168.883
168.883
168.883
168.883
168.883
168.883
168.883
168.883
168.883
168.883
168.884
168.884
168.884
168.884
168.884
168.884
168.884
168.884
168.884
168.885
168.885
168.885
168.885
168.885
168.885
168.886
168.886
168.886
168.886
168.886
168.887
168.887
168.887
168.887
168.887
168.888
168.888
168.888
168.888
168.889
168.889
168.889
168.89
168.89
168.89
168.891
168.891
168.891
168.892
168.892
168.893
168.893
168.893
168.894
168.894
168.895
168.895
168.896
168.896
168.897
168.897
168.898
168.899
168.899
168.9
168.901
168.901
168.902
168.903
168.903
168.904
168.905
168.906
168.907
168.908
168.908
168.909
168.91
168.911
168.912
168.913
168.914
168.915
168.917
168.918
168.919
168.92
168.921
168.923
168.924
168.925
168.927
168.928
168.93
168.931
168.933
168.935
168.936
168.938
168.94
168.941
168.943
168.945
168.947
168.949
168.951
168.953
168.955
168.958
168.96
168.962
168.965
168.967
168.97
168.972
168.975
168.977
168.98
168.983
168.986
168.989
168.992
168.995
168.998
169.001
169.005
169.008
169.012
169.015
169.019
169.022
169.026
169.03
169.034
169.038
169.042
169.046
169.051
169.055
169.06
169.064
169.069
169.074
169.079
169.084
169.089
169.094
169.099
169.105
169.11
169.116
169.121
169.127
169.133
169.139
169.145
169.152
169.158
169.165
169.171
169.178
169.185
169.192
169.199
169.207
169.214
169.222
169.229
169.237
169.245
169.253
169.261
169.27
169.278
169.287
169.296
169.304
169.314
169.323
169.332
169.342
169.351
169.361
169.371
169.381
169.392
169.402
169.413
169.423
169.434
169.445
169.457
169.468
169.48
169.491
169.503
169.515
169.528
169.54
169.553
169.565
169.578
169.591
169.605
169.618
169.632
169.645
169.659
169.674
169.688
169.703
169.717
169.732
169.747
169.762
169.778
169.793
169.809
169.825
169.841
169.858
169.874
169.891
169.908
169.925
169.943
169.96
169.978
169.996
170.014
170.032
170.05
170.069
170.088
170.107
170.126
170.146
170.165
170.185
170.205
170.225
170.246
170.266
170.287
170.308
170.329
170.351
170.372
170.394
170.416
170.438
170.461
170.483
170.506
170.529
170.552
170.576
170.599
170.623
170.647
170.671
170.695
170.72
170.745
170.77
170.795
170.82
170.845
170.871
170.897
170.923
170.949
170.976
171.003
171.029
171.056
171.084
171.111
171.139
171.166
171.194
171.223
171.251
171.28
171.308
171.337
171.366
171.396
171.425
171.455
171.485
171.515
171.545
171.575
171.606
171.637
171.668
171.699
171.73
171.762
171.793
171.825
171.857
171.889
171.922
171.954
171.987
172.02
172.053
172.086
172.119
172.153
172.187
172.221
172.255
172.289
172.323
172.358
172.393
172.428
172.463
172.498
172.533
172.569
172.605
172.64
172.676
172.713
172.749
172.785
172.822
172.859
172.896
172.933
172.97
173.008
173.045
173.083
173.121
173.159
173.197
173.235
173.274
173.313
173.351
173.39
173.429
173.469
173.508
173.547
173.587
173.627
173.667
173.707
173.747
173.787
173.828
173.868
173.909
173.95
173.991
174.032
174.073
174.114
174.156
174.198
174.239
174.281
174.323
174.365
174.408
174.45
174.493
174.535
174.578
174.621
174.664
174.707
174.75
174.794
174.837
174.881
174.924
174.968
175.012
175.056
175.1
175.145
175.189
175.233
175.278
175.323
175.368
175.413
175.458
175.503
175.548
175.593
175.639
175.684
175.73
175.776
175.822
175.868
175.914
175.96
176.006
176.053
176.099
176.146
176.192
176.239
176.286
176.333
176.38
176.427
176.474
176.522
176.569
176.617
176.664
176.712
176.76
176.808
176.856
176.904
176.952
177
177.048
177.097
177.145
177.194
177.242
177.291
177.34
177.389
177.438
177.487
177.536
177.585
177.634
177.684
177.733
177.783
177.832
177.882
177.931
177.981
178.031
178.081
178.131
178.181
178.231
178.281
178.332
178.382
178.432
178.483
178.533
178.584
178.634
178.685
178.736
178.787
178.838
178.889
178.94
178.991
179.042
179.093
179.144
179.195
179.247
179.298
179.349
179.401
179.452
179.504
179.555
179.607
179.659
179.71
179.762
179.814
179.866
179.917
179.969
180.021
180.073
180.125
180.177
180.229
180.281
180.333
180.385
180.437
180.489
180.542
180.594
180.646
180.698
180.75
180.802
180.854
180.907
180.959
181.011
181.063
181.115
181.167
181.219
181.271
181.323
181.375
181.427
181.479
181.531
181.583
181.635
181.686
181.738
181.79
181.841
181.893
181.944
181.996
182.047
182.098
182.149
182.2
182.251
182.301
182.352
182.402
182.453
182.503
182.553
182.603
182.652
182.702
182.751
182.8
182.849
182.898
182.946
182.994
183.042
183.09
183.137
183.184
183.231
183.277
183.324
183.369
183.415
183.46
183.504
183.548
183.592
183.635
183.678
183.72
183.762
183.803
183.844
183.884
183.923
183.962
184
184.037
184.073
184.109
184.144
184.178
184.211
184.244
184.275
184.305
184.335
184.363
184.39
184.416
184.441
184.464
184.486
184.507
184.527
184.545
184.561
184.576
184.589
184.6
184.61
184.618
184.624
184.628
184.63
184.63
184.627
184.623
184.616
184.606
184.594
184.58
184.562
184.543
184.52
184.494
184.465
184.434
184.399
184.36
184.319
184.274
184.225
184.173
184.117
184.057
183.994
183.926
183.855
183.779
183.7
183.616
183.528
183.435
183.338
183.237
183.131
183.021
182.907
182.787
182.664
182.536
182.403
182.266
182.124
181.979
181.828
181.674
181.515
181.353
181.186
181.015
180.841
180.663
180.482
180.297
180.11
179.919
179.726
179.53
179.331
179.131
178.929
178.725
178.519
178.313
178.105
177.897
177.688
177.479
177.27
177.062
176.854
176.646
176.44
176.235
176.031
175.829
175.629
175.431
175.235
175.042
174.851
174.663
174.478
174.296
174.117
173.942
173.769
173.601
173.436
173.274
173.117
172.963
172.813
172.666
172.524
172.385
172.25
172.119
171.992
171.869
171.749
171.633
171.521
171.412
171.307
171.206
171.108
171.013
170.922
170.834
170.749
170.668
170.589
170.514
170.441
170.371
170.304
170.239
170.177
170.118
170.061
170.006
169.954
169.904
169.856
169.81
169.766
169.724
169.683
169.645
169.608
169.573
169.539
169.507
169.476
169.447
169.419
169.392
169.367
169.343
169.319
169.297
169.276
169.256
169.237
169.219
169.202
169.186
169.17
169.155
169.141
169.127
169.115
169.102
169.091
169.08
169.069
169.06
169.05
169.041
169.033
169.025
169.017
169.01
169.003
168.996
168.99
168.984
168.979
168.973
168.968
168.964
168.959
168.955
168.951
168.947
168.943
168.94
168.937
168.933
168.931
168.928
168.925
168.923
168.92
168.918
168.916
168.914
168.912
168.91
168.909
168.907
168.906
168.904
168.903
168.902
168.901
168.899
168.898
168.897
168.896
168.896
168.895
168.894
168.893
168.892
168.892
168.891
168.891
168.89
168.89
168.889
168.889
168.888
168.888
168.887
168.887
168.887
168.886
168.886
168.886
168.885
168.885
168.885
168.885
168.884
168.884
168.884
168.884
168.884
168.884
168.883
168.883
168.883
168.883
168.883
168.883
168.883
168.883
168.883
168.882
168.882
168.882
168.882
168.882
168.882
168.882
168.882
168.882
168.882
168.882
168.882
)
;

boundaryField
{
    topWall
    {
        type            empty;
    }
    bottomWall
    {
        type            empty;
    }
    leftAndRight_half1
    {
        type            cyclic;
    }
    leftAndRight_half0
    {
        type            cyclic;
    }
    frontAndBack
    {
        type            empty;
    }
}


// ************************************************************************* //
