/*--------------------------------*- C++ -*----------------------------------*\
  =========                 |
  \\      /  F ield         | OpenFOAM: The Open Source CFD Toolbox
   \\    /   O peration     | Website:  https://openfoam.org
    \\  /    A nd           | Version:  9
     \\/     M anipulation  |
\*---------------------------------------------------------------------------*/
FoamFile
{
    format      ascii;
    class       volScalarField;
    location    "0.8";
    object      f_2;
}
// * * * * * * * * * * * * * * * * * * * * * * * * * * * * * * * * * * * * * //

dimensions      [1 -3 0 0 0 0 0];

internalField   nonuniform List<scalar> 
1000
(
164.481
164.481
164.481
164.481
164.481
164.481
164.481
164.481
164.481
164.481
164.481
164.481
164.481
164.481
164.481
164.481
164.481
164.481
164.481
164.481
164.481
164.481
164.481
164.481
164.481
164.481
164.481
164.481
164.481
164.481
164.481
164.481
164.481
164.481
164.481
164.481
164.481
164.481
164.481
164.481
164.481
164.481
164.481
164.481
164.481
164.481
164.481
164.481
164.481
164.481
164.481
164.481
164.481
164.481
164.481
164.481
164.481
164.481
164.481
164.481
164.481
164.481
164.481
164.481
164.481
164.481
164.481
164.481
164.481
164.481
164.481
164.481
164.481
164.481
164.481
164.481
164.481
164.481
164.481
164.481
164.481
164.481
164.481
164.481
164.481
164.481
164.481
164.481
164.481
164.481
164.481
164.481
164.481
164.481
164.481
164.481
164.481
164.481
164.481
164.481
164.481
164.481
164.481
164.481
164.481
164.481
164.481
164.481
164.481
164.481
164.481
164.481
164.481
164.481
164.481
164.481
164.481
164.481
164.481
164.481
164.481
164.481
164.481
164.481
164.481
164.481
164.481
164.481
164.481
164.481
164.481
164.481
164.481
164.481
164.48
164.48
164.48
164.48
164.48
164.48
164.48
164.48
164.48
164.48
164.48
164.48
164.48
164.48
164.48
164.48
164.48
164.48
164.48
164.48
164.479
164.479
164.479
164.479
164.479
164.479
164.479
164.479
164.479
164.479
164.479
164.478
164.478
164.478
164.478
164.478
164.478
164.478
164.478
164.477
164.477
164.477
164.477
164.477
164.477
164.476
164.476
164.476
164.476
164.476
164.475
164.475
164.475
164.475
164.474
164.474
164.474
164.474
164.473
164.473
164.473
164.472
164.472
164.472
164.471
164.471
164.471
164.47
164.47
164.469
164.469
164.469
164.468
164.468
164.467
164.467
164.466
164.466
164.465
164.464
164.464
164.463
164.463
164.462
164.461
164.461
164.46
164.459
164.458
164.458
164.457
164.456
164.455
164.454
164.453
164.452
164.451
164.45
164.449
164.448
164.447
164.446
164.445
164.444
164.442
164.441
164.44
164.439
164.437
164.436
164.434
164.433
164.431
164.43
164.428
164.427
164.425
164.423
164.421
164.42
164.418
164.416
164.414
164.412
164.41
164.408
164.405
164.403
164.401
164.399
164.396
164.394
164.391
164.389
164.386
164.383
164.38
164.378
164.375
164.372
164.369
164.366
164.362
164.359
164.356
164.352
164.349
164.345
164.342
164.338
164.334
164.33
164.326
164.322
164.318
164.314
164.309
164.305
164.3
164.296
164.291
164.286
164.281
164.276
164.271
164.266
164.261
164.255
164.25
164.244
164.238
164.233
164.227
164.221
164.214
164.208
164.202
164.195
164.189
164.182
164.175
164.168
164.161
164.153
164.146
164.138
164.131
164.123
164.115
164.107
164.099
164.091
164.082
164.074
164.065
164.056
164.047
164.038
164.028
164.019
164.009
164
163.99
163.98
163.969
163.959
163.949
163.938
163.927
163.916
163.905
163.894
163.882
163.871
163.859
163.847
163.835
163.823
163.81
163.798
163.785
163.772
163.759
163.746
163.732
163.719
163.705
163.691
163.677
163.663
163.648
163.633
163.619
163.604
163.588
163.573
163.558
163.542
163.526
163.51
163.494
163.477
163.461
163.444
163.427
163.41
163.393
163.375
163.357
163.34
163.322
163.303
163.285
163.266
163.248
163.229
163.21
163.19
163.171
163.151
163.131
163.111
163.091
163.071
163.05
163.029
163.008
162.987
162.966
162.944
162.923
162.901
162.879
162.856
162.834
162.811
162.789
162.766
162.743
162.719
162.696
162.672
162.648
162.624
162.6
162.576
162.551
162.526
162.501
162.476
162.451
162.426
162.4
162.374
162.348
162.322
162.296
162.27
162.243
162.216
162.189
162.162
162.135
162.107
162.08
162.052
162.024
161.996
161.967
161.939
161.91
161.881
161.852
161.823
161.794
161.765
161.735
161.705
161.675
161.645
161.615
161.585
161.554
161.524
161.493
161.462
161.431
161.4
161.368
161.337
161.305
161.273
161.241
161.209
161.177
161.144
161.112
161.079
161.046
161.013
160.98
160.947
160.913
160.88
160.846
160.812
160.779
160.744
160.71
160.676
160.642
160.607
160.572
160.537
160.503
160.467
160.432
160.397
160.362
160.326
160.29
160.254
160.219
160.183
160.146
160.11
160.074
160.037
160.001
159.964
159.927
159.89
159.853
159.816
159.779
159.741
159.704
159.666
159.629
159.591
159.553
159.515
159.477
159.439
159.401
159.362
159.324
159.285
159.247
159.208
159.169
159.13
159.091
159.052
159.013
158.973
158.934
158.894
158.855
158.815
158.776
158.736
158.696
158.656
158.616
158.576
158.535
158.495
158.455
158.414
158.374
158.333
158.292
158.252
158.211
158.17
158.129
158.088
158.047
158.005
157.964
157.923
157.881
157.84
157.798
157.757
157.715
157.673
157.631
157.59
157.548
157.506
157.464
157.421
157.379
157.337
157.295
157.252
157.21
157.168
157.125
157.082
157.04
156.997
156.954
156.912
156.869
156.826
156.783
156.74
156.697
156.654
156.611
156.567
156.524
156.481
156.438
156.394
156.351
156.307
156.264
156.22
156.177
156.133
156.09
156.046
156.002
155.959
155.915
155.871
155.827
155.783
155.739
155.695
155.651
155.607
155.563
155.519
155.475
155.431
155.387
155.343
155.298
155.254
155.21
155.166
155.121
155.077
155.033
154.988
154.944
154.9
154.855
154.811
154.766
154.722
154.678
154.633
154.589
154.544
154.5
154.455
154.411
154.366
154.322
154.277
154.233
154.188
154.144
154.099
154.055
154.01
153.966
153.921
153.877
153.833
153.788
153.744
153.699
153.655
153.611
153.567
153.522
153.478
153.434
153.39
153.346
153.302
153.258
153.214
153.17
153.126
153.082
153.038
152.995
152.951
152.907
152.864
152.82
152.777
152.734
152.691
152.648
152.605
152.562
152.519
152.476
152.434
152.391
152.349
152.307
152.265
152.223
152.181
152.14
152.098
152.057
152.016
151.975
151.934
151.894
151.853
151.813
151.774
151.734
151.695
151.656
151.617
151.578
151.54
151.502
151.465
151.427
151.391
151.354
151.318
151.282
151.247
151.212
151.177
151.143
151.11
151.077
151.044
151.012
150.981
150.95
150.92
150.89
150.861
150.833
150.806
150.779
150.753
150.728
150.704
150.68
150.658
150.636
150.615
150.596
150.577
150.56
150.543
150.528
150.514
150.502
150.491
150.481
150.472
150.465
150.46
150.456
150.454
150.453
150.454
150.457
150.462
150.469
150.478
150.489
150.502
150.517
150.535
150.555
150.577
150.602
150.63
150.66
150.693
150.728
150.767
150.808
150.853
150.901
150.951
151.005
151.063
151.123
151.187
151.255
151.326
151.401
151.479
151.562
151.647
151.737
151.831
151.928
152.029
152.134
152.243
152.356
152.473
152.594
152.718
152.846
152.978
153.114
153.254
153.397
153.543
153.693
153.846
154.002
154.161
154.324
154.489
154.656
154.826
154.999
155.173
155.35
155.528
155.707
155.888
156.07
156.254
156.437
156.622
156.806
156.991
157.175
157.359
157.543
157.725
157.907
158.088
158.267
158.444
158.62
158.794
158.966
159.136
159.303
159.468
159.63
159.789
159.946
160.099
160.249
160.397
160.541
160.682
160.819
160.954
161.085
161.212
161.336
161.457
161.574
161.688
161.799
161.906
162.01
162.111
162.208
162.302
162.393
162.481
162.566
162.648
162.727
162.803
162.877
162.947
163.015
163.081
163.143
163.204
163.262
163.317
163.371
163.422
163.471
163.518
163.564
163.607
163.648
163.688
163.726
163.762
163.797
163.83
163.861
163.892
163.92
163.948
163.974
163.999
164.023
164.046
164.068
164.089
164.108
164.127
164.145
164.162
164.179
164.194
164.209
164.223
164.236
164.249
164.261
164.273
164.283
164.294
164.304
164.313
164.322
164.33
164.338
164.346
164.353
164.36
164.367
164.373
164.379
164.384
164.389
164.394
164.399
164.404
164.408
164.412
164.416
164.419
164.423
164.426
164.429
164.432
164.435
164.437
164.44
164.442
164.444
164.446
164.448
164.45
164.452
164.454
164.455
164.457
164.458
164.459
164.461
164.462
164.463
164.464
164.465
164.466
164.467
164.468
164.468
164.469
164.47
164.471
164.471
164.472
164.472
164.473
164.473
164.474
164.474
164.475
164.475
164.475
164.476
164.476
164.476
164.477
164.477
164.477
164.477
164.478
164.478
164.478
164.478
164.478
164.479
164.479
164.479
164.479
164.479
164.479
164.479
164.48
164.48
164.48
164.48
164.48
164.48
164.48
164.48
164.48
164.48
164.48
164.48
164.48
164.48
164.481
164.481
164.481
164.481
164.481
)
;

boundaryField
{
    topWall
    {
        type            empty;
    }
    bottomWall
    {
        type            empty;
    }
    leftAndRight_half1
    {
        type            cyclic;
    }
    leftAndRight_half0
    {
        type            cyclic;
    }
    frontAndBack
    {
        type            empty;
    }
}


// ************************************************************************* //
