/*--------------------------------*- C++ -*----------------------------------*\
  =========                 |
  \\      /  F ield         | OpenFOAM: The Open Source CFD Toolbox
   \\    /   O peration     | Website:  https://openfoam.org
    \\  /    A nd           | Version:  9
     \\/     M anipulation  |
\*---------------------------------------------------------------------------*/
FoamFile
{
    format      ascii;
    class       volScalarField;
    location    "0.8";
    object      p;
}
// * * * * * * * * * * * * * * * * * * * * * * * * * * * * * * * * * * * * * //

dimensions      [1 -1 -2 0 0 0 0];

internalField   nonuniform List<scalar> 
1000
(
100097
100097
100097
100097
100097
100097
100097
100097
100097
100097
100097
100097
100097
100097
100097
100097
100097
100097
100097
100097
100097
100097
100097
100097
100097
100097
100097
100097
100097
100097
100097
100097
100097
100097
100097
100097
100097
100097
100097
100097
100097
100097
100097
100097
100097
100097
100097
100097
100097
100097
100097
100097
100097
100097
100097
100097
100097
100097
100097
100097
100097
100097
100097
100097
100097
100097
100097
100097
100097
100097
100097
100097
100097
100097
100097
100097
100097
100097
100097
100097
100097
100097
100097
100097
100097
100097
100097
100097
100097
100097
100097
100097
100097
100097
100097
100097
100097
100097
100097
100097
100097
100097
100097
100097
100097
100097
100097
100097
100097
100097
100097
100097
100097
100097
100097
100097
100097
100097
100097
100097
100097
100097
100097
100097
100097
100097
100097
100096
100096
100096
100096
100096
100096
100096
100096
100096
100096
100096
100096
100096
100096
100096
100096
100096
100096
100096
100096
100096
100096
100096
100096
100096
100096
100096
100096
100096
100096
100096
100096
100096
100096
100096
100096
100095
100095
100095
100095
100095
100095
100095
100095
100095
100095
100095
100095
100095
100095
100095
100095
100094
100094
100094
100094
100094
100094
100094
100094
100094
100094
100093
100093
100093
100093
100093
100093
100093
100093
100092
100092
100092
100092
100092
100092
100091
100091
100091
100091
100091
100091
100090
100090
100090
100090
100089
100089
100089
100089
100089
100088
100088
100088
100087
100087
100087
100087
100086
100086
100086
100085
100085
100085
100084
100084
100084
100083
100083
100082
100082
100082
100081
100081
100080
100080
100080
100079
100079
100078
100078
100077
100077
100076
100076
100075
100074
100074
100073
100073
100072
100072
100071
100070
100070
100069
100068
100068
100067
100066
100066
100065
100064
100063
100063
100062
100061
100060
100059
100059
100058
100057
100056
100055
100054
100054
100053
100052
100051
100050
100049
100048
100047
100046
100045
100044
100043
100042
100041
100040
100039
100038
100037
100036
100035
100033
100032
100031
100030
100029
100028
100027
100026
100024
100023
100022
100021
100020
100018
100017
100016
100015
100013
100012
100011
100010
100009
100007
100006
100005
100004
100002
100001
99999.7
99998.5
99997.2
99996
99994.7
99993.4
99992.2
99990.9
99989.7
99988.4
99987.2
99986
99984.7
99983.5
99982.3
99981.1
99979.9
99978.7
99977.5
99976.3
99975.1
99974
99972.8
99971.7
99970.6
99969.4
99968.3
99967.3
99966.2
99965.1
99964.1
99963.1
99962.1
99961.1
99960.1
99959.2
99958.2
99957.3
99956.4
99955.6
99954.7
99953.9
99953.1
99952.4
99951.6
99950.9
99950.2
99949.6
99949
99948.4
99947.8
99947.3
99946.8
99946.3
99945.8
99945.4
99945.1
99944.7
99944.5
99944.2
99944
99943.8
99943.7
99943.6
99943.5
99943.5
99943.5
99943.6
99943.7
99943.8
99944
99944.3
99944.6
99944.9
99945.3
99945.8
99946.3
99946.8
99947.4
99948.1
99948.8
99949.5
99950.4
99951.2
99952.1
99953.1
99954.2
99955.3
99956.4
99957.6
99958.9
99960.3
99961.7
99963.1
99964.7
99966.3
99967.9
99969.6
99971.4
99973.3
99975.2
99977.2
99979.3
99981.4
99983.6
99985.9
99988.2
99990.7
99993.2
99995.7
99998.4
100001
100004
100007
100010
100013
100016
100019
100022
100026
100029
100033
100036
100040
100043
100047
100051
100055
100059
100063
100068
100072
100077
100081
100086
100090
100095
100100
100105
100110
100115
100120
100126
100131
100137
100142
100148
100154
100160
100166
100172
100178
100184
100191
100197
100204
100210
100217
100224
100231
100238
100245
100252
100260
100267
100275
100283
100290
100298
100306
100314
100322
100331
100339
100348
100356
100365
100374
100383
100392
100401
100410
100420
100429
100439
100448
100458
100468
100478
100488
100498
100509
100519
100530
100540
100551
100562
100573
100584
100595
100607
100618
100630
100641
100653
100665
100677
100689
100702
100714
100726
100739
100752
100765
100777
100791
100804
100817
100830
100844
100858
100871
100885
100899
100913
100927
100942
100956
100971
100986
101000
101015
101030
101045
101061
101076
101092
101107
101123
101139
101155
101171
101187
101204
101220
101237
101253
101270
101287
101304
101321
101339
101356
101374
101391
101409
101427
101445
101463
101482
101500
101519
101537
101556
101575
101594
101613
101632
101652
101671
101691
101710
101730
101750
101770
101791
101811
101831
101852
101873
101894
101915
101936
101957
101978
102000
102021
102043
102065
102087
102109
102131
102153
102176
102198
102221
102244
102267
102290
102313
102336
102360
102383
102407
102431
102455
102479
102503
102527
102551
102576
102601
102625
102650
102675
102700
102726
102751
102777
102802
102828
102854
102880
102906
102932
102958
102985
103011
103038
103065
103092
103119
103146
103173
103201
103228
103256
103284
103312
103340
103368
103396
103424
103453
103481
103510
103539
103568
103597
103626
103655
103685
103714
103744
103773
103803
103833
103863
103893
103923
103954
103984
104015
104045
104076
104107
104138
104169
104200
104231
104262
104294
104325
104357
104388
104420
104452
104484
104516
104548
104580
104612
104644
104676
104708
104741
104773
104806
104838
104871
104903
104936
104968
105001
105034
105066
105099
105132
105164
105197
105229
105262
105294
105327
105359
105392
105424
105456
105488
105520
105552
105583
105615
105646
105677
105708
105739
105769
105799
105829
105859
105888
105917
105946
105974
106002
106029
106056
106082
106108
106133
106158
106181
106205
106227
106249
106269
106289
106308
106326
106343
106359
106374
106388
106400
106411
106421
106429
106435
106440
106444
106445
106445
106443
106439
106433
106425
106415
106403
106388
106371
106352
106330
106306
106279
106249
106217
106182
106144
106104
106061
106015
105966
105915
105861
105804
105744
105682
105617
105550
105480
105407
105333
105256
105177
105095
105012
104928
104841
104753
104663
104573
104481
104388
104294
104200
104105
104010
103914
103819
103723
103628
103533
103438
103344
103251
103159
103067
102977
102888
102800
102713
102627
102544
102461
102381
102301
102224
102148
102074
102002
101932
101863
101796
101731
101668
101607
101548
101490
101434
101380
101327
101277
101228
101181
101135
101091
101048
101007
100968
100930
100893
100858
100824
100792
100760
100731
100702
100674
100648
100622
100598
100574
100552
100531
100510
100491
100472
100454
100437
100420
100405
100390
100376
100362
100349
100337
100325
100313
100303
100292
100283
100273
100264
100256
100248
100240
100233
100226
100219
100213
100207
100201
100196
100191
100186
100181
100177
100172
100168
100165
100161
100158
100154
100151
100148
100146
100143
100141
100138
100136
100134
100132
100130
100128
100126
100125
100123
100122
100120
100119
100118
100117
100115
100114
100113
100113
100112
100111
100110
100109
100109
100108
100107
100107
100106
100106
100105
100105
100104
100104
100103
100103
100103
100102
100102
100102
100101
100101
100101
100101
100100
100100
100100
100100
100100
100099
100099
100099
100099
100099
100099
100099
100098
100098
100098
100098
100098
100098
100098
100098
100098
100098
100098
100098
100098
100098
100097
100097
100097
)
;

boundaryField
{
    topWall
    {
        type            empty;
    }
    bottomWall
    {
        type            empty;
    }
    leftAndRight_half1
    {
        type            cyclic;
    }
    leftAndRight_half0
    {
        type            cyclic;
    }
    frontAndBack
    {
        type            empty;
    }
}


// ************************************************************************* //
