/*--------------------------------*- C++ -*----------------------------------*\
  =========                 |
  \\      /  F ield         | OpenFOAM: The Open Source CFD Toolbox
   \\    /   O peration     | Website:  https://openfoam.org
    \\  /    A nd           | Version:  9
     \\/     M anipulation  |
\*---------------------------------------------------------------------------*/
FoamFile
{
    format      ascii;
    class       volVectorField;
    location    "0.8";
    object      U;
}
// * * * * * * * * * * * * * * * * * * * * * * * * * * * * * * * * * * * * * //

dimensions      [0 1 -1 0 0 0 0];

internalField   nonuniform List<vector> 
1000
(
(0.440093 0 0)
(0.440086 0 0)
(0.44008 0 0)
(0.440074 0 0)
(0.440068 0 0)
(0.440063 0 0)
(0.440058 0 0)
(0.440054 0 0)
(0.44005 0 0)
(0.440046 0 0)
(0.440042 0 0)
(0.440039 0 0)
(0.440035 0 0)
(0.440032 0 0)
(0.440029 0 0)
(0.440027 0 0)
(0.440024 0 0)
(0.440022 0 0)
(0.44002 0 0)
(0.440018 0 0)
(0.440016 0 0)
(0.440014 0 0)
(0.440013 0 0)
(0.440011 0 0)
(0.44001 0 0)
(0.440008 0 0)
(0.440007 0 0)
(0.440006 0 0)
(0.440005 0 0)
(0.440004 0 0)
(0.440003 0 0)
(0.440002 0 0)
(0.440001 0 0)
(0.44 0 0)
(0.44 0 0)
(0.439999 0 0)
(0.439999 0 0)
(0.439998 0 0)
(0.439997 0 0)
(0.439997 0 0)
(0.439997 0 0)
(0.439996 0 0)
(0.439996 0 0)
(0.439996 0 0)
(0.439995 0 0)
(0.439995 0 0)
(0.439995 0 0)
(0.439995 0 0)
(0.439994 0 0)
(0.439994 0 0)
(0.439994 0 0)
(0.439994 0 0)
(0.439994 0 0)
(0.439994 0 0)
(0.439994 0 0)
(0.439994 0 0)
(0.439994 0 0)
(0.439994 0 0)
(0.439994 0 0)
(0.439994 0 0)
(0.439994 0 0)
(0.439994 0 0)
(0.439994 0 0)
(0.439994 0 0)
(0.439994 0 0)
(0.439994 0 0)
(0.439995 0 0)
(0.439995 0 0)
(0.439995 0 0)
(0.439995 0 0)
(0.439995 0 0)
(0.439996 0 0)
(0.439996 0 0)
(0.439996 0 0)
(0.439997 0 0)
(0.439997 0 0)
(0.439997 0 0)
(0.439998 0 0)
(0.439998 0 0)
(0.439998 0 0)
(0.439999 0 0)
(0.439999 0 0)
(0.44 0 0)
(0.440001 0 0)
(0.440001 0 0)
(0.440002 0 0)
(0.440002 0 0)
(0.440003 0 0)
(0.440004 0 0)
(0.440005 0 0)
(0.440005 0 0)
(0.440006 0 0)
(0.440007 0 0)
(0.440008 0 0)
(0.440009 0 0)
(0.44001 0 0)
(0.440011 0 0)
(0.440012 0 0)
(0.440013 0 0)
(0.440015 0 0)
(0.440016 0 0)
(0.440017 0 0)
(0.440019 0 0)
(0.44002 0 0)
(0.440022 0 0)
(0.440023 0 0)
(0.440025 0 0)
(0.440027 0 0)
(0.440029 0 0)
(0.440031 0 0)
(0.440033 0 0)
(0.440035 0 0)
(0.440037 0 0)
(0.44004 0 0)
(0.440042 0 0)
(0.440045 0 0)
(0.440047 0 0)
(0.44005 0 0)
(0.440053 0 0)
(0.440056 0 0)
(0.44006 0 0)
(0.440063 0 0)
(0.440066 0 0)
(0.44007 0 0)
(0.440074 0 0)
(0.440078 0 0)
(0.440082 0 0)
(0.440087 0 0)
(0.440091 0 0)
(0.440096 0 0)
(0.440101 0 0)
(0.440107 0 0)
(0.440112 0 0)
(0.440118 0 0)
(0.440124 0 0)
(0.44013 0 0)
(0.440136 0 0)
(0.440143 0 0)
(0.44015 0 0)
(0.440158 0 0)
(0.440165 0 0)
(0.440173 0 0)
(0.440182 0 0)
(0.440191 0 0)
(0.4402 0 0)
(0.440209 0 0)
(0.440219 0 0)
(0.440229 0 0)
(0.44024 0 0)
(0.440251 0 0)
(0.440263 0 0)
(0.440275 0 0)
(0.440287 0 0)
(0.440301 0 0)
(0.440314 0 0)
(0.440328 0 0)
(0.440343 0 0)
(0.440359 0 0)
(0.440375 0 0)
(0.440391 0 0)
(0.440408 0 0)
(0.440426 0 0)
(0.440445 0 0)
(0.440465 0 0)
(0.440485 0 0)
(0.440506 0 0)
(0.440527 0 0)
(0.44055 0 0)
(0.440574 0 0)
(0.440598 0 0)
(0.440623 0 0)
(0.44065 0 0)
(0.440677 0 0)
(0.440705 0 0)
(0.440735 0 0)
(0.440765 0 0)
(0.440797 0 0)
(0.44083 0 0)
(0.440864 0 0)
(0.440899 0 0)
(0.440936 0 0)
(0.440974 0 0)
(0.441014 0 0)
(0.441054 0 0)
(0.441097 0 0)
(0.441141 0 0)
(0.441186 0 0)
(0.441233 0 0)
(0.441282 0 0)
(0.441333 0 0)
(0.441385 0 0)
(0.441439 0 0)
(0.441495 0 0)
(0.441554 0 0)
(0.441614 0 0)
(0.441676 0 0)
(0.44174 0 0)
(0.441807 0 0)
(0.441876 0 0)
(0.441947 0 0)
(0.442021 0 0)
(0.442097 0 0)
(0.442176 0 0)
(0.442257 0 0)
(0.442341 0 0)
(0.442428 0 0)
(0.442518 0 0)
(0.442611 0 0)
(0.442707 0 0)
(0.442806 0 0)
(0.442908 0 0)
(0.443014 0 0)
(0.443123 0 0)
(0.443236 0 0)
(0.443352 0 0)
(0.443472 0 0)
(0.443596 0 0)
(0.443723 0 0)
(0.443855 0 0)
(0.443991 0 0)
(0.444131 0 0)
(0.444275 0 0)
(0.444424 0 0)
(0.444578 0 0)
(0.444736 0 0)
(0.444899 0 0)
(0.445067 0 0)
(0.44524 0 0)
(0.445418 0 0)
(0.445602 0 0)
(0.445791 0 0)
(0.445985 0 0)
(0.446186 0 0)
(0.446392 0 0)
(0.446605 0 0)
(0.446823 0 0)
(0.447048 0 0)
(0.447279 0 0)
(0.447517 0 0)
(0.447762 0 0)
(0.448014 0 0)
(0.448273 0 0)
(0.448539 0 0)
(0.448812 0 0)
(0.449093 0 0)
(0.449382 0 0)
(0.449679 0 0)
(0.449984 0 0)
(0.450298 0 0)
(0.450619 0 0)
(0.45095 0 0)
(0.451289 0 0)
(0.451638 0 0)
(0.451995 0 0)
(0.452363 0 0)
(0.452739 0 0)
(0.453126 0 0)
(0.453522 0 0)
(0.453929 0 0)
(0.454347 0 0)
(0.454775 0 0)
(0.455213 0 0)
(0.455663 0 0)
(0.456125 0 0)
(0.456597 0 0)
(0.457082 0 0)
(0.457578 0 0)
(0.458087 0 0)
(0.458608 0 0)
(0.459142 0 0)
(0.459688 0 0)
(0.460248 0 0)
(0.460821 0 0)
(0.461408 0 0)
(0.462008 0 0)
(0.462623 0 0)
(0.463252 0 0)
(0.463895 0 0)
(0.464554 0 0)
(0.465227 0 0)
(0.465916 0 0)
(0.46662 0 0)
(0.46734 0 0)
(0.468076 0 0)
(0.468829 0 0)
(0.469598 0 0)
(0.470384 0 0)
(0.471187 0 0)
(0.472007 0 0)
(0.472845 0 0)
(0.473701 0 0)
(0.474576 0 0)
(0.475468 0 0)
(0.47638 0 0)
(0.47731 0 0)
(0.47826 0 0)
(0.479229 0 0)
(0.480218 0 0)
(0.481227 0 0)
(0.482257 0 0)
(0.483307 0 0)
(0.484378 0 0)
(0.48547 0 0)
(0.486584 0 0)
(0.487719 0 0)
(0.488876 0 0)
(0.490056 0 0)
(0.491258 0 0)
(0.492483 0 0)
(0.493731 0 0)
(0.495003 0 0)
(0.496298 0 0)
(0.497617 0 0)
(0.49896 0 0)
(0.500328 0 0)
(0.501721 0 0)
(0.503138 0 0)
(0.504581 0 0)
(0.506049 0 0)
(0.507543 0 0)
(0.509064 0 0)
(0.51061 0 0)
(0.512183 0 0)
(0.513783 0 0)
(0.51541 0 0)
(0.517065 0 0)
(0.518747 0 0)
(0.520457 0 0)
(0.522195 0 0)
(0.523962 0 0)
(0.525757 0 0)
(0.527581 0 0)
(0.529435 0 0)
(0.531317 0 0)
(0.53323 0 0)
(0.535172 0 0)
(0.537144 0 0)
(0.539147 0 0)
(0.54118 0 0)
(0.543244 0 0)
(0.545339 0 0)
(0.547465 0 0)
(0.549623 0 0)
(0.551812 0 0)
(0.554033 0 0)
(0.556286 0 0)
(0.558572 0 0)
(0.56089 0 0)
(0.563241 0 0)
(0.565625 0 0)
(0.568042 0 0)
(0.570492 0 0)
(0.572975 0 0)
(0.575493 0 0)
(0.578044 0 0)
(0.580629 0 0)
(0.583248 0 0)
(0.585902 0 0)
(0.58859 0 0)
(0.591313 0 0)
(0.594071 0 0)
(0.596864 0 0)
(0.599692 0 0)
(0.602555 0 0)
(0.605453 0 0)
(0.608388 0 0)
(0.611358 0 0)
(0.614363 0 0)
(0.617405 0 0)
(0.620483 0 0)
(0.623597 0 0)
(0.626747 0 0)
(0.629934 0 0)
(0.633158 0 0)
(0.636418 0 0)
(0.639714 0 0)
(0.643048 0 0)
(0.646419 0 0)
(0.649826 0 0)
(0.653271 0 0)
(0.656753 0 0)
(0.660272 0 0)
(0.663828 0 0)
(0.667422 0 0)
(0.671053 0 0)
(0.674722 0 0)
(0.678428 0 0)
(0.682172 0 0)
(0.685953 0 0)
(0.689772 0 0)
(0.693629 0 0)
(0.697524 0 0)
(0.701456 0 0)
(0.705426 0 0)
(0.709434 0 0)
(0.71348 0 0)
(0.717564 0 0)
(0.721685 0 0)
(0.725845 0 0)
(0.730042 0 0)
(0.734277 0 0)
(0.73855 0 0)
(0.742861 0 0)
(0.74721 0 0)
(0.751596 0 0)
(0.75602 0 0)
(0.760483 0 0)
(0.764982 0 0)
(0.76952 0 0)
(0.774095 0 0)
(0.778708 0 0)
(0.783358 0 0)
(0.788046 0 0)
(0.792771 0 0)
(0.797534 0 0)
(0.802334 0 0)
(0.807172 0 0)
(0.812047 0 0)
(0.816959 0 0)
(0.821908 0 0)
(0.826894 0 0)
(0.831917 0 0)
(0.836977 0 0)
(0.842074 0 0)
(0.847207 0 0)
(0.852378 0 0)
(0.857584 0 0)
(0.862828 0 0)
(0.868107 0 0)
(0.873423 0 0)
(0.878775 0 0)
(0.884163 0 0)
(0.889588 0 0)
(0.895048 0 0)
(0.900543 0 0)
(0.906075 0 0)
(0.911642 0 0)
(0.917244 0 0)
(0.922882 0 0)
(0.928555 0 0)
(0.934263 0 0)
(0.940005 0 0)
(0.945783 0 0)
(0.951595 0 0)
(0.957442 0 0)
(0.963324 0 0)
(0.969239 0 0)
(0.975189 0 0)
(0.981173 0 0)
(0.987191 0 0)
(0.993242 0 0)
(0.999327 0 0)
(1.00545 0 0)
(1.0116 0 0)
(1.01778 0 0)
(1.024 0 0)
(1.03025 0 0)
(1.03653 0 0)
(1.04285 0 0)
(1.0492 0 0)
(1.05558 0 0)
(1.06199 0 0)
(1.06844 0 0)
(1.07491 0 0)
(1.08142 0 0)
(1.08796 0 0)
(1.09453 0 0)
(1.10114 0 0)
(1.10777 0 0)
(1.11443 0 0)
(1.12113 0 0)
(1.12785 0 0)
(1.13461 0 0)
(1.1414 0 0)
(1.14821 0 0)
(1.15506 0 0)
(1.16193 0 0)
(1.16884 0 0)
(1.17577 0 0)
(1.18274 0 0)
(1.18973 0 0)
(1.19675 0 0)
(1.2038 0 0)
(1.21088 0 0)
(1.21799 0 0)
(1.22512 0 0)
(1.23229 0 0)
(1.23948 0 0)
(1.2467 0 0)
(1.25394 0 0)
(1.26122 0 0)
(1.26852 0 0)
(1.27585 0 0)
(1.2832 0 0)
(1.29058 0 0)
(1.29799 0 0)
(1.30543 0 0)
(1.31289 0 0)
(1.32038 0 0)
(1.32789 0 0)
(1.33543 0 0)
(1.34299 0 0)
(1.35058 0 0)
(1.35819 0 0)
(1.36583 0 0)
(1.3735 0 0)
(1.38119 0 0)
(1.3889 0 0)
(1.39664 0 0)
(1.4044 0 0)
(1.41219 0 0)
(1.42 0 0)
(1.42783 0 0)
(1.43569 0 0)
(1.44357 0 0)
(1.45147 0 0)
(1.4594 0 0)
(1.46735 0 0)
(1.47532 0 0)
(1.48331 0 0)
(1.49133 0 0)
(1.49937 0 0)
(1.50743 0 0)
(1.51551 0 0)
(1.52362 0 0)
(1.53175 0 0)
(1.53989 0 0)
(1.54806 0 0)
(1.55625 0 0)
(1.56447 0 0)
(1.5727 0 0)
(1.58095 0 0)
(1.58922 0 0)
(1.59752 0 0)
(1.60583 0 0)
(1.61416 0 0)
(1.62252 0 0)
(1.63089 0 0)
(1.63928 0 0)
(1.6477 0 0)
(1.65613 0 0)
(1.66458 0 0)
(1.67305 0 0)
(1.68154 0 0)
(1.69004 0 0)
(1.69857 0 0)
(1.70711 0 0)
(1.71568 0 0)
(1.72426 0 0)
(1.73286 0 0)
(1.74147 0 0)
(1.7501 0 0)
(1.75876 0 0)
(1.76742 0 0)
(1.77611 0 0)
(1.78481 0 0)
(1.79353 0 0)
(1.80227 0 0)
(1.81102 0 0)
(1.81979 0 0)
(1.82858 0 0)
(1.83738 0 0)
(1.8462 0 0)
(1.85503 0 0)
(1.86388 0 0)
(1.87275 0 0)
(1.88163 0 0)
(1.89052 0 0)
(1.89943 0 0)
(1.90836 0 0)
(1.9173 0 0)
(1.92626 0 0)
(1.93523 0 0)
(1.94422 0 0)
(1.95321 0 0)
(1.96223 0 0)
(1.97126 0 0)
(1.9803 0 0)
(1.98936 0 0)
(1.99842 0 0)
(2.00751 0 0)
(2.0166 0 0)
(2.02571 0 0)
(2.03484 0 0)
(2.04397 0 0)
(2.05312 0 0)
(2.06228 0 0)
(2.07146 0 0)
(2.08064 0 0)
(2.08984 0 0)
(2.09905 0 0)
(2.10828 0 0)
(2.11751 0 0)
(2.12676 0 0)
(2.13602 0 0)
(2.14529 0 0)
(2.15457 0 0)
(2.16386 0 0)
(2.17316 0 0)
(2.18248 0 0)
(2.1918 0 0)
(2.20114 0 0)
(2.21048 0 0)
(2.21984 0 0)
(2.22921 0 0)
(2.23858 0 0)
(2.24797 0 0)
(2.25736 0 0)
(2.26677 0 0)
(2.27618 0 0)
(2.28561 0 0)
(2.29504 0 0)
(2.30448 0 0)
(2.31393 0 0)
(2.32339 0 0)
(2.33286 0 0)
(2.34233 0 0)
(2.35181 0 0)
(2.36131 0 0)
(2.3708 0 0)
(2.38031 0 0)
(2.38982 0 0)
(2.39934 0 0)
(2.40887 0 0)
(2.4184 0 0)
(2.42794 0 0)
(2.43749 0 0)
(2.44704 0 0)
(2.4566 0 0)
(2.46617 0 0)
(2.47574 0 0)
(2.48531 0 0)
(2.49489 0 0)
(2.50447 0 0)
(2.51406 0 0)
(2.52366 0 0)
(2.53325 0 0)
(2.54285 0 0)
(2.55246 0 0)
(2.56206 0 0)
(2.57167 0 0)
(2.58129 0 0)
(2.5909 0 0)
(2.60052 0 0)
(2.61014 0 0)
(2.61975 0 0)
(2.62938 0 0)
(2.639 0 0)
(2.64862 0 0)
(2.65824 0 0)
(2.66786 0 0)
(2.67748 0 0)
(2.6871 0 0)
(2.69672 0 0)
(2.70633 0 0)
(2.71594 0 0)
(2.72555 0 0)
(2.73516 0 0)
(2.74476 0 0)
(2.75436 0 0)
(2.76395 0 0)
(2.77354 0 0)
(2.78312 0 0)
(2.7927 0 0)
(2.80227 0 0)
(2.81183 0 0)
(2.82138 0 0)
(2.83092 0 0)
(2.84046 0 0)
(2.84998 0 0)
(2.85949 0 0)
(2.86899 0 0)
(2.87848 0 0)
(2.88795 0 0)
(2.89741 0 0)
(2.90685 0 0)
(2.91628 0 0)
(2.92569 0 0)
(2.93508 0 0)
(2.94446 0 0)
(2.95381 0 0)
(2.96315 0 0)
(2.97246 0 0)
(2.98174 0 0)
(2.99101 0 0)
(3.00024 0 0)
(3.00945 0 0)
(3.01863 0 0)
(3.02778 0 0)
(3.0369 0 0)
(3.04599 0 0)
(3.05504 0 0)
(3.06405 0 0)
(3.07303 0 0)
(3.08197 0 0)
(3.09087 0 0)
(3.09972 0 0)
(3.10852 0 0)
(3.11728 0 0)
(3.12599 0 0)
(3.13465 0 0)
(3.14325 0 0)
(3.1518 0 0)
(3.16029 0 0)
(3.16871 0 0)
(3.17707 0 0)
(3.18536 0 0)
(3.19358 0 0)
(3.20173 0 0)
(3.2098 0 0)
(3.21779 0 0)
(3.2257 0 0)
(3.23352 0 0)
(3.24124 0 0)
(3.24888 0 0)
(3.25641 0 0)
(3.26384 0 0)
(3.27116 0 0)
(3.27838 0 0)
(3.28547 0 0)
(3.29244 0 0)
(3.29929 0 0)
(3.306 0 0)
(3.31257 0 0)
(3.319 0 0)
(3.32529 0 0)
(3.33141 0 0)
(3.33738 0 0)
(3.34317 0 0)
(3.34879 0 0)
(3.35423 0 0)
(3.35948 0 0)
(3.36453 0 0)
(3.36938 0 0)
(3.37401 0 0)
(3.37842 0 0)
(3.3826 0 0)
(3.38654 0 0)
(3.39023 0 0)
(3.39366 0 0)
(3.39682 0 0)
(3.39971 0 0)
(3.4023 0 0)
(3.4046 0 0)
(3.40658 0 0)
(3.40824 0 0)
(3.40956 0 0)
(3.41054 0 0)
(3.41116 0 0)
(3.4114 0 0)
(3.41126 0 0)
(3.41072 0 0)
(3.40976 0 0)
(3.40838 0 0)
(3.40656 0 0)
(3.40428 0 0)
(3.40153 0 0)
(3.3983 0 0)
(3.39456 0 0)
(3.39031 0 0)
(3.38552 0 0)
(3.38019 0 0)
(3.37429 0 0)
(3.36781 0 0)
(3.36074 0 0)
(3.35305 0 0)
(3.34474 0 0)
(3.33578 0 0)
(3.32616 0 0)
(3.31586 0 0)
(3.30487 0 0)
(3.29318 0 0)
(3.28077 0 0)
(3.26763 0 0)
(3.25373 0 0)
(3.23908 0 0)
(3.22365 0 0)
(3.20744 0 0)
(3.19044 0 0)
(3.17263 0 0)
(3.15401 0 0)
(3.13457 0 0)
(3.11431 0 0)
(3.09321 0 0)
(3.07128 0 0)
(3.04851 0 0)
(3.02491 0 0)
(3.00048 0 0)
(2.97521 0 0)
(2.94912 0 0)
(2.92221 0 0)
(2.89449 0 0)
(2.86597 0 0)
(2.83666 0 0)
(2.80659 0 0)
(2.77576 0 0)
(2.7442 0 0)
(2.71192 0 0)
(2.67896 0 0)
(2.64534 0 0)
(2.61108 0 0)
(2.57622 0 0)
(2.54079 0 0)
(2.50482 0 0)
(2.46835 0 0)
(2.43142 0 0)
(2.39406 0 0)
(2.35631 0 0)
(2.31823 0 0)
(2.27984 0 0)
(2.2412 0 0)
(2.20234 0 0)
(2.16332 0 0)
(2.12418 0 0)
(2.08497 0 0)
(2.04572 0 0)
(2.0065 0 0)
(1.96734 0 0)
(1.92829 0 0)
(1.88939 0 0)
(1.85069 0 0)
(1.81222 0 0)
(1.77404 0 0)
(1.73618 0 0)
(1.69868 0 0)
(1.66158 0 0)
(1.6249 0 0)
(1.5887 0 0)
(1.55298 0 0)
(1.5178 0 0)
(1.48317 0 0)
(1.44911 0 0)
(1.41566 0 0)
(1.38283 0 0)
(1.35064 0 0)
(1.31911 0 0)
(1.28826 0 0)
(1.25809 0 0)
(1.22862 0 0)
(1.19985 0 0)
(1.1718 0 0)
(1.14446 0 0)
(1.11785 0 0)
(1.09195 0 0)
(1.06678 0 0)
(1.04233 0 0)
(1.01859 0 0)
(0.995567 0 0)
(0.973249 0 0)
(0.95163 0 0)
(0.930703 0 0)
(0.910458 0 0)
(0.890885 0 0)
(0.871974 0 0)
(0.853712 0 0)
(0.836089 0 0)
(0.819091 0 0)
(0.802705 0 0)
(0.786917 0 0)
(0.771713 0 0)
(0.75708 0 0)
(0.743002 0 0)
(0.729465 0 0)
(0.716454 0 0)
(0.703955 0 0)
(0.691953 0 0)
(0.680432 0 0)
(0.669378 0 0)
(0.658776 0 0)
(0.648612 0 0)
(0.638872 0 0)
(0.62954 0 0)
(0.620604 0 0)
(0.61205 0 0)
(0.603863 0 0)
(0.596032 0 0)
(0.588542 0 0)
(0.581381 0 0)
(0.574538 0 0)
(0.567998 0 0)
(0.561752 0 0)
(0.555788 0 0)
(0.550094 0 0)
(0.54466 0 0)
(0.539475 0 0)
(0.534529 0 0)
(0.529812 0 0)
(0.525315 0 0)
(0.521029 0 0)
(0.516945 0 0)
(0.513053 0 0)
(0.509346 0 0)
(0.505816 0 0)
(0.502455 0 0)
(0.499256 0 0)
(0.496212 0 0)
(0.493315 0 0)
(0.490559 0 0)
(0.487938 0 0)
(0.485446 0 0)
(0.483076 0 0)
(0.480824 0 0)
(0.478684 0 0)
(0.47665 0 0)
(0.474717 0 0)
(0.472882 0 0)
(0.471139 0 0)
(0.469484 0 0)
(0.467913 0 0)
(0.466422 0 0)
(0.465007 0 0)
(0.463664 0 0)
(0.46239 0 0)
(0.461181 0 0)
(0.460035 0 0)
(0.458948 0 0)
(0.457918 0 0)
(0.456941 0 0)
(0.456016 0 0)
(0.455138 0 0)
(0.454307 0 0)
(0.45352 0 0)
(0.452774 0 0)
(0.452067 0 0)
(0.451398 0 0)
(0.450765 0 0)
(0.450166 0 0)
(0.449598 0 0)
(0.449061 0 0)
(0.448553 0 0)
(0.448072 0 0)
(0.447618 0 0)
(0.447187 0 0)
(0.446781 0 0)
(0.446396 0 0)
(0.446032 0 0)
(0.445689 0 0)
(0.445364 0 0)
(0.445057 0 0)
(0.444767 0 0)
(0.444493 0 0)
(0.444234 0 0)
(0.443989 0 0)
(0.443758 0 0)
(0.44354 0 0)
(0.443334 0 0)
(0.44314 0 0)
(0.442957 0 0)
(0.442784 0 0)
(0.44262 0 0)
(0.442466 0 0)
(0.442321 0 0)
(0.442184 0 0)
(0.442054 0 0)
(0.441932 0 0)
(0.441817 0 0)
(0.441709 0 0)
(0.441607 0 0)
(0.441511 0 0)
(0.44142 0 0)
(0.441334 0 0)
(0.441254 0 0)
(0.441178 0 0)
(0.441107 0 0)
(0.441039 0 0)
(0.440976 0 0)
(0.440916 0 0)
(0.44086 0 0)
(0.440807 0 0)
(0.440757 0 0)
(0.440711 0 0)
(0.440667 0 0)
(0.440625 0 0)
(0.440586 0 0)
(0.44055 0 0)
(0.440515 0 0)
(0.440483 0 0)
(0.440452 0 0)
(0.440424 0 0)
(0.440397 0 0)
(0.440371 0 0)
(0.440348 0 0)
(0.440325 0 0)
(0.440304 0 0)
(0.440285 0 0)
(0.440266 0 0)
(0.440249 0 0)
(0.440232 0 0)
(0.440217 0 0)
(0.440203 0 0)
(0.440189 0 0)
(0.440176 0 0)
(0.440165 0 0)
(0.440153 0 0)
(0.440143 0 0)
(0.440133 0 0)
(0.440124 0 0)
(0.440115 0 0)
(0.440107 0 0)
(0.4401 0 0)
)
;

boundaryField
{
    topWall
    {
        type            empty;
    }
    bottomWall
    {
        type            empty;
    }
    leftAndRight_half1
    {
        type            cyclic;
    }
    leftAndRight_half0
    {
        type            cyclic;
    }
    frontAndBack
    {
        type            empty;
    }
}


// ************************************************************************* //
