/*--------------------------------*- C++ -*----------------------------------*\
  =========                 |
  \\      /  F ield         | OpenFOAM: The Open Source CFD Toolbox
   \\    /   O peration     | Website:  https://openfoam.org
    \\  /    A nd           | Version:  9
     \\/     M anipulation  |
\*---------------------------------------------------------------------------*/
FoamFile
{
    format      ascii;
    class       volScalarField;
    location    "0";
    object      f_1;
}
// * * * * * * * * * * * * * * * * * * * * * * * * * * * * * * * * * * * * * //

dimensions      [1 -3 0 0 0 0 0];

internalField   nonuniform List<scalar> 
1000
(
168.309
168.309
168.309
168.309
168.309
168.309
168.309
168.309
168.309
168.309
168.309
168.309
168.309
168.309
168.309
168.309
168.309
168.309
168.309
168.309
168.309
168.309
168.309
168.309
168.309
168.309
168.309
168.309
168.309
168.309
168.309
168.309
168.309
168.309
168.309
168.309
168.309
168.309
168.309
168.309
168.309
168.309
168.309
168.309
168.309
168.309
168.309
168.309
168.309
168.309
168.309
168.309
168.309
168.309
168.309
168.309
168.309
168.309
168.309
168.309
168.309
168.309
168.309
168.309
168.309
168.309
168.309
168.309
168.309
168.309
168.309
168.309
168.309
168.309
168.309
168.309
168.309
168.309
168.309
168.309
168.309
168.309
168.309
168.309
168.309
168.309
168.309
168.309
168.309
168.309
168.309
168.309
168.309
168.309
168.309
168.309
168.309
168.309
168.309
168.309
168.309
168.309
168.309
168.309
168.309
168.309
168.309
168.309
168.309
168.309
168.309
168.309
168.309
168.309
168.309
168.309
168.309
168.309
168.309
168.309
168.309
168.309
168.309
168.309
168.309
168.309
168.309
168.309
168.309
168.309
168.309
168.309
168.309
168.309
168.309
168.309
168.309
168.309
168.309
168.309
168.309
168.309
168.309
168.309
168.309
168.309
168.309
168.309
168.309
168.309
168.309
168.309
168.309
168.309
168.309
168.309
168.309
168.309
168.309
168.309
168.309
168.309
168.309
168.309
168.309
168.309
168.309
168.309
168.309
168.309
168.309
168.309
168.309
168.309
168.309
168.309
168.309
168.309
168.309
168.309
168.309
168.309
168.309
168.309
168.309
168.309
168.309
168.309
168.309
168.309
168.309
168.309
168.309
168.309
168.309
168.309
168.309
168.309
168.309
168.309
168.309
168.309
168.309
168.309
168.309
168.309
168.309
168.309
168.309
168.309
168.309
168.309
168.309
168.309
168.309
168.309
168.309
168.309
168.309
168.309
168.309
168.309
168.309
168.309
168.309
168.309
168.309
168.309
168.309
168.309
168.309
168.309
168.309
168.309
168.309
168.309
168.309
168.309
168.309
168.309
168.309
168.309
168.309
168.309
168.309
168.309
168.309
168.309
168.309
168.309
168.309
168.309
168.309
168.309
168.309
168.309
168.309
168.309
168.309
168.309
168.309
168.309
168.309
168.309
168.309
168.309
168.309
168.309
168.309
168.309
168.309
168.309
168.309
168.309
168.309
168.309
168.309
168.309
168.309
168.309
168.309
168.309
168.309
168.309
168.309
168.309
168.309
168.309
168.309
168.309
168.309
168.309
168.309
168.309
168.309
168.309
168.309
168.309
168.309
168.309
168.309
168.309
168.309
168.309
168.309
168.309
168.309
168.309
168.309
168.309
168.309
168.309
168.309
168.309
168.309
168.309
168.309
168.309
168.309
168.309
168.309
168.309
168.309
168.309
168.309
168.309
168.309
168.309
168.309
168.309
168.309
168.309
168.309
168.309
168.309
168.309
168.31
168.31
168.31
168.31
168.31
168.31
168.31
168.311
168.311
168.311
168.311
168.312
168.312
168.312
168.313
168.313
168.314
168.315
168.315
168.316
168.317
168.318
168.319
168.32
168.322
168.323
168.325
168.327
168.329
168.331
168.334
168.337
168.34
168.343
168.347
168.351
168.356
168.361
168.366
168.372
168.379
168.386
168.394
168.403
168.412
168.423
168.434
168.446
168.46
168.474
168.49
168.508
168.526
168.547
168.569
168.592
168.618
168.646
168.676
168.708
168.743
168.781
168.821
168.865
168.911
168.961
169.015
169.073
169.134
169.2
169.27
169.345
169.425
169.51
169.6
169.697
169.799
169.908
170.023
170.145
170.274
170.411
170.556
170.708
170.869
171.039
171.217
171.405
171.603
171.81
172.027
172.256
172.494
172.744
173.005
173.278
173.562
173.859
174.167
174.488
174.822
175.168
175.528
175.9
176.285
176.684
177.096
177.521
177.959
178.41
178.874
179.35
179.84
180.342
180.856
181.382
181.919
182.468
183.027
183.596
184.175
184.763
185.359
185.964
186.575
187.192
187.815
188.442
189.073
189.706
190.341
190.977
191.612
192.245
192.876
193.503
194.125
194.74
195.348
195.947
196.535
197.112
197.677
198.227
198.763
199.281
199.782
200.264
200.725
201.166
201.584
201.978
202.348
202.692
203.01
203.3
203.562
203.796
204
204.174
204.318
204.431
204.512
204.563
204.581
204.568
204.523
204.447
204.34
204.202
204.033
203.834
203.606
203.348
203.063
202.749
202.41
202.044
201.654
201.24
200.803
200.345
199.866
199.368
198.852
198.319
197.771
197.208
196.633
196.045
195.448
194.841
194.226
193.605
192.979
192.348
191.714
191.079
190.442
189.807
189.172
188.541
187.912
187.288
186.67
186.057
185.451
184.853
184.264
183.683
183.112
182.551
182
181.461
180.933
180.416
179.912
179.421
178.942
178.476
178.022
177.582
177.155
176.742
176.341
175.953
175.579
175.218
174.869
174.534
174.211
173.9
173.602
173.316
173.042
172.779
172.528
172.287
172.058
171.839
171.63
171.431
171.242
171.062
170.891
170.729
170.576
170.43
170.292
170.162
170.039
169.923
169.813
169.71
169.613
169.522
169.436
169.355
169.28
169.209
169.143
169.08
169.022
168.968
168.918
168.871
168.827
168.786
168.748
168.713
168.68
168.65
168.622
168.596
168.572
168.549
168.529
168.51
168.492
168.476
168.462
168.448
168.436
168.424
168.414
168.404
168.395
168.387
168.38
168.373
168.367
168.361
168.356
168.352
168.347
168.344
168.34
168.337
168.334
168.332
168.329
168.327
168.325
168.323
168.322
168.321
168.319
168.318
168.317
168.316
168.315
168.315
168.314
168.313
168.313
168.312
168.312
168.312
168.311
168.311
168.311
168.311
168.31
168.31
168.31
168.31
168.31
168.31
168.31
168.309
168.309
168.309
168.309
168.309
168.309
168.309
168.309
168.309
168.309
168.309
168.309
168.309
168.309
168.309
168.309
168.309
168.309
168.309
168.309
168.309
168.309
168.309
168.309
168.309
168.309
168.309
168.309
168.309
168.309
168.309
168.309
168.309
168.309
168.309
168.309
168.309
168.309
168.309
168.309
168.309
168.309
168.309
168.309
168.309
168.309
168.309
168.309
168.309
168.309
168.309
168.309
168.309
168.309
168.309
168.309
168.309
168.309
168.309
168.309
168.309
168.309
168.309
168.309
168.309
168.309
168.309
168.309
168.309
168.309
168.309
168.309
168.309
168.309
168.309
168.309
168.309
168.309
168.309
168.309
168.309
168.309
168.309
168.309
168.309
168.309
168.309
168.309
168.309
168.309
168.309
168.309
168.309
168.309
168.309
168.309
168.309
168.309
168.309
168.309
168.309
168.309
168.309
168.309
168.309
168.309
168.309
168.309
168.309
168.309
168.309
168.309
168.309
168.309
168.309
168.309
168.309
168.309
168.309
168.309
168.309
168.309
168.309
168.309
168.309
168.309
168.309
168.309
168.309
168.309
168.309
168.309
168.309
168.309
168.309
168.309
168.309
168.309
168.309
168.309
168.309
168.309
168.309
168.309
168.309
168.309
168.309
168.309
168.309
168.309
168.309
168.309
168.309
168.309
168.309
168.309
168.309
168.309
168.309
168.309
168.309
168.309
168.309
168.309
168.309
168.309
168.309
168.309
168.309
168.309
168.309
168.309
168.309
168.309
168.309
168.309
168.309
168.309
168.309
168.309
168.309
168.309
168.309
168.309
168.309
168.309
168.309
168.309
168.309
168.309
168.309
168.309
168.309
168.309
168.309
168.309
168.309
168.309
168.309
168.309
168.309
168.309
168.309
168.309
168.309
168.309
168.309
168.309
168.309
168.309
168.309
168.309
168.309
168.309
168.309
168.309
168.309
168.309
168.309
168.309
168.309
168.309
168.309
168.309
168.309
168.309
168.309
168.309
168.309
168.309
168.309
168.309
168.309
168.309
168.309
168.309
168.309
168.309
168.309
168.309
168.309
168.309
168.309
168.309
168.309
168.309
168.309
168.309
168.309
168.309
168.309
168.309
168.309
168.309
168.309
168.309
168.309
168.309
168.309
168.309
168.309
168.309
168.309
168.309
168.309
168.309
168.309
168.309
168.309
168.309
168.309
168.309
168.309
168.309
168.309
168.309
168.309
168.309
168.309
168.309
168.309
168.309
168.309
168.309
168.309
168.309
168.309
168.309
168.309
168.309
168.309
168.309
168.309
168.309
168.309
168.309
168.309
168.309
168.309
168.309
168.309
168.309
168.309
168.309
168.309
168.309
168.309
168.309
168.309
168.309
168.309
168.309
168.309
168.309
168.309
168.309
168.309
168.309
168.309
168.309
168.309
168.309
168.309
168.309
168.309
168.309
168.309
168.309
168.309
168.309
168.309
168.309
168.309
168.309
168.309
)
;

boundaryField
{
    topWall
    {
        type            empty;
    }
    bottomWall
    {
        type            empty;
    }
    leftAndRight_half1
    {
        type            cyclic;
    }
    leftAndRight_half0
    {
        type            cyclic;
    }
    frontAndBack
    {
        type            empty;
    }
}


// ************************************************************************* //
