/*--------------------------------*- C++ -*----------------------------------*\
  =========                 |
  \\      /  F ield         | OpenFOAM: The Open Source CFD Toolbox
   \\    /   O peration     | Website:  https://openfoam.org
    \\  /    A nd           | Version:  9
     \\/     M anipulation  |
\*---------------------------------------------------------------------------*/
FoamFile
{
    format      ascii;
    class       volScalarField;
    location    "0";
    object      f_2;
}
// * * * * * * * * * * * * * * * * * * * * * * * * * * * * * * * * * * * * * //

dimensions      [1 -3 0 0 0 0 0];

internalField   nonuniform List<scalar> 
1000
(
165.041
165.041
165.041
165.041
165.041
165.041
165.041
165.041
165.041
165.041
165.041
165.041
165.041
165.041
165.041
165.041
165.041
165.041
165.041
165.041
165.041
165.041
165.041
165.041
165.041
165.041
165.041
165.041
165.041
165.041
165.041
165.041
165.041
165.041
165.041
165.041
165.041
165.041
165.041
165.041
165.041
165.041
165.041
165.041
165.041
165.041
165.041
165.041
165.041
165.041
165.041
165.041
165.041
165.041
165.041
165.041
165.041
165.041
165.041
165.041
165.041
165.041
165.041
165.041
165.041
165.041
165.041
165.041
165.041
165.041
165.041
165.041
165.041
165.041
165.041
165.041
165.041
165.041
165.041
165.041
165.041
165.041
165.041
165.041
165.041
165.041
165.041
165.041
165.041
165.041
165.041
165.041
165.041
165.041
165.041
165.041
165.041
165.041
165.041
165.041
165.041
165.041
165.041
165.041
165.041
165.041
165.041
165.041
165.041
165.041
165.041
165.041
165.041
165.041
165.041
165.041
165.041
165.041
165.041
165.041
165.041
165.041
165.041
165.041
165.041
165.041
165.041
165.041
165.041
165.041
165.041
165.041
165.041
165.041
165.041
165.041
165.041
165.041
165.041
165.041
165.041
165.041
165.041
165.041
165.041
165.041
165.041
165.041
165.041
165.041
165.041
165.041
165.041
165.041
165.041
165.041
165.041
165.041
165.041
165.041
165.041
165.041
165.041
165.041
165.041
165.041
165.041
165.041
165.041
165.041
165.041
165.041
165.041
165.041
165.041
165.041
165.041
165.041
165.041
165.041
165.041
165.041
165.041
165.041
165.041
165.041
165.041
165.041
165.041
165.041
165.041
165.041
165.041
165.041
165.041
165.041
165.041
165.041
165.041
165.041
165.041
165.041
165.041
165.041
165.041
165.041
165.041
165.041
165.041
165.041
165.041
165.041
165.041
165.041
165.041
165.041
165.041
165.041
165.041
165.041
165.041
165.041
165.041
165.041
165.041
165.041
165.041
165.041
165.041
165.041
165.041
165.041
165.041
165.041
165.041
165.041
165.041
165.041
165.041
165.041
165.041
165.041
165.041
165.041
165.041
165.041
165.041
165.041
165.041
165.041
165.041
165.041
165.041
165.041
165.041
165.041
165.041
165.041
165.041
165.041
165.041
165.041
165.041
165.041
165.041
165.041
165.041
165.041
165.041
165.041
165.041
165.041
165.041
165.041
165.041
165.041
165.041
165.041
165.041
165.041
165.041
165.041
165.041
165.041
165.041
165.041
165.041
165.041
165.041
165.041
165.041
165.041
165.041
165.041
165.041
165.041
165.041
165.041
165.041
165.041
165.041
165.041
165.041
165.041
165.041
165.041
165.041
165.041
165.041
165.041
165.041
165.041
165.041
165.041
165.041
165.041
165.041
165.041
165.041
165.041
165.041
165.041
165.041
165.041
165.041
165.041
165.041
165.041
165.041
165.041
165.04
165.04
165.04
165.04
165.04
165.04
165.04
165.04
165.04
165.04
165.04
165.039
165.039
165.039
165.039
165.038
165.038
165.038
165.037
165.037
165.036
165.036
165.035
165.034
165.034
165.033
165.032
165.031
165.029
165.028
165.027
165.025
165.023
165.021
165.019
165.016
165.013
165.01
165.007
165.003
164.999
164.994
164.989
164.984
164.978
164.971
164.964
164.956
164.948
164.938
164.928
164.917
164.905
164.891
164.877
164.861
164.844
164.826
164.805
164.784
164.76
164.735
164.707
164.678
164.646
164.612
164.575
164.535
164.492
164.446
164.397
164.345
164.288
164.228
164.164
164.095
164.022
163.944
163.861
163.773
163.679
163.58
163.475
163.363
163.245
163.12
162.989
162.85
162.703
162.549
162.387
162.217
162.038
161.851
161.655
161.449
161.235
161.011
160.777
160.533
160.28
160.016
159.743
159.459
159.164
158.86
158.545
158.22
157.884
157.538
157.183
156.817
156.441
156.056
155.661
155.257
154.845
154.423
153.994
153.557
153.112
152.661
152.203
151.739
151.27
150.796
150.318
149.836
149.351
148.865
148.376
147.887
147.398
146.91
146.423
145.938
145.456
144.978
144.505
144.037
143.575
143.121
142.674
142.236
141.807
141.388
140.98
140.583
140.199
139.828
139.47
139.127
138.799
138.486
138.189
137.909
137.646
137.401
137.173
136.965
136.775
136.604
136.452
136.321
136.209
136.117
136.046
135.996
135.966
135.956
135.967
135.999
136.052
136.125
136.218
136.331
136.465
136.618
136.791
136.983
137.193
137.422
137.669
137.934
138.216
138.514
138.828
139.158
139.503
139.862
140.234
140.62
141.018
141.427
141.847
142.277
142.717
143.165
143.62
144.083
144.552
145.026
145.504
145.987
146.472
146.96
147.448
147.938
148.427
148.916
149.403
149.887
150.369
150.847
151.321
151.79
152.253
152.71
153.162
153.606
154.042
154.471
154.891
155.303
155.706
156.1
156.485
156.859
157.224
157.579
157.924
158.258
158.583
158.896
159.2
159.493
159.776
160.048
160.311
160.563
160.806
161.038
161.261
161.475
161.679
161.874
162.061
162.238
162.408
162.569
162.722
162.867
163.005
163.136
163.26
163.377
163.488
163.593
163.691
163.784
163.872
163.954
164.031
164.104
164.172
164.236
164.296
164.351
164.404
164.452
164.498
164.54
164.579
164.616
164.65
164.682
164.711
164.738
164.763
164.787
164.808
164.828
164.846
164.863
164.879
164.893
164.906
164.918
164.929
164.94
164.949
164.957
164.965
164.972
164.979
164.985
164.99
164.995
165
165.004
165.007
165.011
165.014
165.016
165.019
165.021
165.023
165.025
165.027
165.028
165.03
165.031
165.032
165.033
165.034
165.034
165.035
165.036
165.036
165.037
165.037
165.038
165.038
165.038
165.039
165.039
165.039
165.039
165.04
165.04
165.04
165.04
165.04
165.04
165.04
165.04
165.04
165.04
165.04
165.041
165.041
165.041
165.041
165.041
165.041
165.041
165.041
165.041
165.041
165.041
165.041
165.041
165.041
165.041
165.041
165.041
165.041
165.041
165.041
165.041
165.041
165.041
165.041
165.041
165.041
165.041
165.041
165.041
165.041
165.041
165.041
165.041
165.041
165.041
165.041
165.041
165.041
165.041
165.041
165.041
165.041
165.041
165.041
165.041
165.041
165.041
165.041
165.041
165.041
165.041
165.041
165.041
165.041
165.041
165.041
165.041
165.041
165.041
165.041
165.041
165.041
165.041
165.041
165.041
165.041
165.041
165.041
165.041
165.041
165.041
165.041
165.041
165.041
165.041
165.041
165.041
165.041
165.041
165.041
165.041
165.041
165.041
165.041
165.041
165.041
165.041
165.041
165.041
165.041
165.041
165.041
165.041
165.041
165.041
165.041
165.041
165.041
165.041
165.041
165.041
165.041
165.041
165.041
165.041
165.041
165.041
165.041
165.041
165.041
165.041
165.041
165.041
165.041
165.041
165.041
165.041
165.041
165.041
165.041
165.041
165.041
165.041
165.041
165.041
165.041
165.041
165.041
165.041
165.041
165.041
165.041
165.041
165.041
165.041
165.041
165.041
165.041
165.041
165.041
165.041
165.041
165.041
165.041
165.041
165.041
165.041
165.041
165.041
165.041
165.041
165.041
165.041
165.041
165.041
165.041
165.041
165.041
165.041
165.041
165.041
165.041
165.041
165.041
165.041
165.041
165.041
165.041
165.041
165.041
165.041
165.041
165.041
165.041
165.041
165.041
165.041
165.041
165.041
165.041
165.041
165.041
165.041
165.041
165.041
165.041
165.041
165.041
165.041
165.041
165.041
165.041
165.041
165.041
165.041
165.041
165.041
165.041
165.041
165.041
165.041
165.041
165.041
165.041
165.041
165.041
165.041
165.041
165.041
165.041
165.041
165.041
165.041
165.041
165.041
165.041
165.041
165.041
165.041
165.041
165.041
165.041
165.041
165.041
165.041
165.041
165.041
165.041
165.041
165.041
165.041
165.041
165.041
165.041
165.041
165.041
165.041
165.041
165.041
165.041
165.041
165.041
165.041
165.041
165.041
165.041
165.041
165.041
165.041
165.041
165.041
165.041
165.041
165.041
165.041
165.041
165.041
165.041
165.041
165.041
165.041
165.041
165.041
165.041
165.041
165.041
165.041
165.041
165.041
165.041
165.041
165.041
165.041
165.041
165.041
165.041
165.041
165.041
165.041
165.041
165.041
165.041
165.041
165.041
165.041
165.041
165.041
165.041
165.041
165.041
165.041
165.041
165.041
165.041
165.041
165.041
165.041
165.041
165.041
165.041
165.041
165.041
165.041
165.041
165.041
165.041
165.041
165.041
165.041
165.041
165.041
165.041
165.041
165.041
165.041
165.041
165.041
165.041
165.041
165.041
165.041
165.041
165.041
165.041
165.041
165.041
165.041
165.041
165.041
165.041
165.041
)
;

boundaryField
{
    topWall
    {
        type            empty;
    }
    bottomWall
    {
        type            empty;
    }
    leftAndRight_half1
    {
        type            cyclic;
    }
    leftAndRight_half0
    {
        type            cyclic;
    }
    frontAndBack
    {
        type            empty;
    }
}


// ************************************************************************* //
