/*--------------------------------*- C++ -*----------------------------------*\
  =========                 |
  \\      /  F ield         | OpenFOAM: The Open Source CFD Toolbox
   \\    /   O peration     | Website:  https://openfoam.org
    \\  /    A nd           | Version:  9
     \\/     M anipulation  |
\*---------------------------------------------------------------------------*/
FoamFile
{
    format      ascii;
    class       volVectorField;
    location    "4.85";
    object      U;
}
// * * * * * * * * * * * * * * * * * * * * * * * * * * * * * * * * * * * * * //

dimensions      [0 1 -1 0 0 0 0];

internalField   nonuniform List<vector> 
1000
(
(0.13177 0 0)
(0.131695 0 0)
(0.131771 0 0)
(0.131695 0 0)
(0.131771 0 0)
(0.131694 0 0)
(0.131772 0 0)
(0.131694 0 0)
(0.131772 0 0)
(0.131693 0 0)
(0.131773 0 0)
(0.131693 0 0)
(0.131773 0 0)
(0.131693 0 0)
(0.131774 0 0)
(0.131693 0 0)
(0.131774 0 0)
(0.131693 0 0)
(0.131775 0 0)
(0.131694 0 0)
(0.131776 0 0)
(0.131694 0 0)
(0.131777 0 0)
(0.131695 0 0)
(0.131777 0 0)
(0.131696 0 0)
(0.131778 0 0)
(0.131697 0 0)
(0.13178 0 0)
(0.131698 0 0)
(0.131781 0 0)
(0.1317 0 0)
(0.131782 0 0)
(0.131702 0 0)
(0.131784 0 0)
(0.131704 0 0)
(0.131785 0 0)
(0.131706 0 0)
(0.131787 0 0)
(0.131709 0 0)
(0.13179 0 0)
(0.131712 0 0)
(0.131792 0 0)
(0.131716 0 0)
(0.131795 0 0)
(0.13172 0 0)
(0.131798 0 0)
(0.131724 0 0)
(0.131802 0 0)
(0.131729 0 0)
(0.131805 0 0)
(0.131735 0 0)
(0.13181 0 0)
(0.131741 0 0)
(0.131814 0 0)
(0.131747 0 0)
(0.13182 0 0)
(0.131754 0 0)
(0.131826 0 0)
(0.131762 0 0)
(0.131832 0 0)
(0.131771 0 0)
(0.131839 0 0)
(0.13178 0 0)
(0.131847 0 0)
(0.13179 0 0)
(0.131855 0 0)
(0.1318 0 0)
(0.131864 0 0)
(0.131812 0 0)
(0.131874 0 0)
(0.131824 0 0)
(0.131885 0 0)
(0.131838 0 0)
(0.131897 0 0)
(0.131852 0 0)
(0.131909 0 0)
(0.131867 0 0)
(0.131923 0 0)
(0.131883 0 0)
(0.131938 0 0)
(0.131901 0 0)
(0.131955 0 0)
(0.131918 0 0)
(0.131974 0 0)
(0.131934 0 0)
(0.131999 0 0)
(0.131945 0 0)
(0.132034 0 0)
(0.131945 0 0)
(0.132089 0 0)
(0.131928 0 0)
(0.132167 0 0)
(0.131904 0 0)
(0.132254 0 0)
(0.131912 0 0)
(0.132317 0 0)
(0.132002 0 0)
(0.132345 0 0)
(0.132167 0 0)
(0.132397 0 0)
(0.132333 0 0)
(0.132497 0 0)
(0.132471 0 0)
(0.132609 0 0)
(0.132582 0 0)
(0.132703 0 0)
(0.132666 0 0)
(0.132771 0 0)
(0.132726 0 0)
(0.132817 0 0)
(0.132767 0 0)
(0.132847 0 0)
(0.132795 0 0)
(0.132868 0 0)
(0.132818 0 0)
(0.132886 0 0)
(0.132839 0 0)
(0.132902 0 0)
(0.132858 0 0)
(0.132918 0 0)
(0.132878 0 0)
(0.132935 0 0)
(0.132899 0 0)
(0.132953 0 0)
(0.13292 0 0)
(0.132971 0 0)
(0.132941 0 0)
(0.13299 0 0)
(0.132964 0 0)
(0.13301 0 0)
(0.132986 0 0)
(0.133031 0 0)
(0.13301 0 0)
(0.133052 0 0)
(0.133034 0 0)
(0.133074 0 0)
(0.133058 0 0)
(0.133096 0 0)
(0.133083 0 0)
(0.133119 0 0)
(0.133108 0 0)
(0.133142 0 0)
(0.133133 0 0)
(0.133166 0 0)
(0.133159 0 0)
(0.13319 0 0)
(0.133185 0 0)
(0.133215 0 0)
(0.133211 0 0)
(0.13324 0 0)
(0.133237 0 0)
(0.133265 0 0)
(0.133264 0 0)
(0.13329 0 0)
(0.13329 0 0)
(0.133315 0 0)
(0.133316 0 0)
(0.13334 0 0)
(0.133343 0 0)
(0.133365 0 0)
(0.133368 0 0)
(0.13339 0 0)
(0.133394 0 0)
(0.133414 0 0)
(0.133419 0 0)
(0.133438 0 0)
(0.133444 0 0)
(0.133462 0 0)
(0.133468 0 0)
(0.133485 0 0)
(0.133492 0 0)
(0.133508 0 0)
(0.133515 0 0)
(0.13353 0 0)
(0.133537 0 0)
(0.133551 0 0)
(0.133558 0 0)
(0.133571 0 0)
(0.133578 0 0)
(0.13359 0 0)
(0.133597 0 0)
(0.133608 0 0)
(0.133615 0 0)
(0.133625 0 0)
(0.133632 0 0)
(0.13364 0 0)
(0.133649 0 0)
(0.133653 0 0)
(0.133664 0 0)
(0.133664 0 0)
(0.133677 0 0)
(0.133675 0 0)
(0.133688 0 0)
(0.133686 0 0)
(0.133696 0 0)
(0.133697 0 0)
(0.133705 0 0)
(0.13371 0 0)
(0.13372 0 0)
(0.133727 0 0)
(0.13374 0 0)
(0.133745 0 0)
(0.133742 0 0)
(0.133714 0 0)
(0.133663 0 0)
(0.133585 0 0)
(0.133498 0 0)
(0.133408 0 0)
(0.133334 0 0)
(0.133274 0 0)
(0.133235 0 0)
(0.133207 0 0)
(0.133194 0 0)
(0.133186 0 0)
(0.133186 0 0)
(0.133185 0 0)
(0.133189 0 0)
(0.133191 0 0)
(0.133196 0 0)
(0.133198 0 0)
(0.133202 0 0)
(0.133204 0 0)
(0.133207 0 0)
(0.133208 0 0)
(0.133211 0 0)
(0.133211 0 0)
(0.133213 0 0)
(0.133213 0 0)
(0.133214 0 0)
(0.133213 0 0)
(0.133214 0 0)
(0.133212 0 0)
(0.133211 0 0)
(0.133209 0 0)
(0.133208 0 0)
(0.133204 0 0)
(0.133202 0 0)
(0.133198 0 0)
(0.133196 0 0)
(0.133191 0 0)
(0.133188 0 0)
(0.133182 0 0)
(0.133178 0 0)
(0.133172 0 0)
(0.133167 0 0)
(0.133161 0 0)
(0.133155 0 0)
(0.133148 0 0)
(0.133142 0 0)
(0.133134 0 0)
(0.133127 0 0)
(0.133118 0 0)
(0.133111 0 0)
(0.133102 0 0)
(0.133094 0 0)
(0.133084 0 0)
(0.133075 0 0)
(0.133066 0 0)
(0.133056 0 0)
(0.133046 0 0)
(0.133036 0 0)
(0.133025 0 0)
(0.133015 0 0)
(0.133003 0 0)
(0.132992 0 0)
(0.132981 0 0)
(0.13297 0 0)
(0.132957 0 0)
(0.132946 0 0)
(0.132933 0 0)
(0.132921 0 0)
(0.132909 0 0)
(0.132896 0 0)
(0.132883 0 0)
(0.132871 0 0)
(0.132857 0 0)
(0.132844 0 0)
(0.132831 0 0)
(0.132818 0 0)
(0.132804 0 0)
(0.132791 0 0)
(0.132777 0 0)
(0.132763 0 0)
(0.132749 0 0)
(0.132736 0 0)
(0.132722 0 0)
(0.132708 0 0)
(0.132694 0 0)
(0.13268 0 0)
(0.132666 0 0)
(0.132652 0 0)
(0.132638 0 0)
(0.132624 0 0)
(0.13261 0 0)
(0.132596 0 0)
(0.132581 0 0)
(0.132568 0 0)
(0.132553 0 0)
(0.13254 0 0)
(0.132526 0 0)
(0.132512 0 0)
(0.132498 0 0)
(0.132484 0 0)
(0.132471 0 0)
(0.132457 0 0)
(0.132444 0 0)
(0.13243 0 0)
(0.132417 0 0)
(0.132404 0 0)
(0.13239 0 0)
(0.132377 0 0)
(0.132364 0 0)
(0.132352 0 0)
(0.132339 0 0)
(0.132326 0 0)
(0.132314 0 0)
(0.132301 0 0)
(0.132289 0 0)
(0.132277 0 0)
(0.132265 0 0)
(0.132253 0 0)
(0.132242 0 0)
(0.13223 0 0)
(0.132219 0 0)
(0.132207 0 0)
(0.132196 0 0)
(0.132185 0 0)
(0.132174 0 0)
(0.132164 0 0)
(0.132153 0 0)
(0.132143 0 0)
(0.132133 0 0)
(0.132123 0 0)
(0.132113 0 0)
(0.132103 0 0)
(0.132094 0 0)
(0.132084 0 0)
(0.132075 0 0)
(0.132066 0 0)
(0.132057 0 0)
(0.132048 0 0)
(0.13204 0 0)
(0.132031 0 0)
(0.132023 0 0)
(0.132015 0 0)
(0.132007 0 0)
(0.131999 0 0)
(0.131992 0 0)
(0.131984 0 0)
(0.131977 0 0)
(0.13197 0 0)
(0.131963 0 0)
(0.131956 0 0)
(0.131949 0 0)
(0.131943 0 0)
(0.131936 0 0)
(0.13193 0 0)
(0.131924 0 0)
(0.131918 0 0)
(0.131912 0 0)
(0.131907 0 0)
(0.131901 0 0)
(0.131896 0 0)
(0.131891 0 0)
(0.131886 0 0)
(0.131881 0 0)
(0.131876 0 0)
(0.131871 0 0)
(0.131867 0 0)
(0.131862 0 0)
(0.131858 0 0)
(0.131854 0 0)
(0.131849 0 0)
(0.131846 0 0)
(0.131842 0 0)
(0.131838 0 0)
(0.131834 0 0)
(0.131831 0 0)
(0.131827 0 0)
(0.131824 0 0)
(0.131821 0 0)
(0.131818 0 0)
(0.131815 0 0)
(0.131812 0 0)
(0.131809 0 0)
(0.131806 0 0)
(0.131804 0 0)
(0.131801 0 0)
(0.131798 0 0)
(0.131796 0 0)
(0.131794 0 0)
(0.131792 0 0)
(0.131789 0 0)
(0.131787 0 0)
(0.131785 0 0)
(0.131783 0 0)
(0.131781 0 0)
(0.13178 0 0)
(0.131778 0 0)
(0.131776 0 0)
(0.131775 0 0)
(0.131773 0 0)
(0.131772 0 0)
(0.13177 0 0)
(0.131769 0 0)
(0.131767 0 0)
(0.131766 0 0)
(0.131765 0 0)
(0.131764 0 0)
(0.131762 0 0)
(0.131761 0 0)
(0.13176 0 0)
(0.131759 0 0)
(0.131758 0 0)
(0.131757 0 0)
(0.131756 0 0)
(0.131756 0 0)
(0.131755 0 0)
(0.131754 0 0)
(0.131753 0 0)
(0.131753 0 0)
(0.131752 0 0)
(0.131751 0 0)
(0.131751 0 0)
(0.13175 0 0)
(0.131749 0 0)
(0.131749 0 0)
(0.131748 0 0)
(0.131748 0 0)
(0.131747 0 0)
(0.131747 0 0)
(0.131746 0 0)
(0.131746 0 0)
(0.131746 0 0)
(0.131745 0 0)
(0.131745 0 0)
(0.131744 0 0)
(0.131744 0 0)
(0.131744 0 0)
(0.131743 0 0)
(0.131743 0 0)
(0.131743 0 0)
(0.131743 0 0)
(0.131742 0 0)
(0.131742 0 0)
(0.131742 0 0)
(0.131742 0 0)
(0.131742 0 0)
(0.131741 0 0)
(0.131741 0 0)
(0.131741 0 0)
(0.131741 0 0)
(0.131741 0 0)
(0.13174 0 0)
(0.13174 0 0)
(0.13174 0 0)
(0.13174 0 0)
(0.13174 0 0)
(0.13174 0 0)
(0.13174 0 0)
(0.13174 0 0)
(0.13174 0 0)
(0.131739 0 0)
(0.131739 0 0)
(0.131739 0 0)
(0.131739 0 0)
(0.131739 0 0)
(0.131739 0 0)
(0.131739 0 0)
(0.131739 0 0)
(0.131739 0 0)
(0.131739 0 0)
(0.131739 0 0)
(0.131739 0 0)
(0.131739 0 0)
(0.131739 0 0)
(0.131739 0 0)
(0.131739 0 0)
(0.131739 0 0)
(0.131739 0 0)
(0.131738 0 0)
(0.131738 0 0)
(0.131738 0 0)
(0.131738 0 0)
(0.131738 0 0)
(0.131738 0 0)
(0.131738 0 0)
(0.131738 0 0)
(0.131738 0 0)
(0.131738 0 0)
(0.131738 0 0)
(0.131738 0 0)
(0.131738 0 0)
(0.131738 0 0)
(0.131738 0 0)
(0.131738 0 0)
(0.131738 0 0)
(0.131738 0 0)
(0.131738 0 0)
(0.131738 0 0)
(0.131738 0 0)
(0.131738 0 0)
(0.131738 0 0)
(0.131738 0 0)
(0.131738 0 0)
(0.131738 0 0)
(0.131738 0 0)
(0.131738 0 0)
(0.131738 0 0)
(0.131738 0 0)
(0.131738 0 0)
(0.131738 0 0)
(0.131738 0 0)
(0.131738 0 0)
(0.131738 0 0)
(0.131738 0 0)
(0.131738 0 0)
(0.131738 0 0)
(0.131738 0 0)
(0.131738 0 0)
(0.131738 0 0)
(0.131738 0 0)
(0.131738 0 0)
(0.131738 0 0)
(0.131738 0 0)
(0.131738 0 0)
(0.131738 0 0)
(0.131738 0 0)
(0.131738 0 0)
(0.131738 0 0)
(0.131738 0 0)
(0.131738 0 0)
(0.131738 0 0)
(0.131738 0 0)
(0.131738 0 0)
(0.131738 0 0)
(0.131738 0 0)
(0.131738 0 0)
(0.131738 0 0)
(0.131738 0 0)
(0.131738 0 0)
(0.131738 0 0)
(0.131738 0 0)
(0.131738 0 0)
(0.131738 0 0)
(0.131738 0 0)
(0.131738 0 0)
(0.131738 0 0)
(0.131738 0 0)
(0.131738 0 0)
(0.131738 0 0)
(0.131738 0 0)
(0.131738 0 0)
(0.131738 0 0)
(0.131738 0 0)
(0.131738 0 0)
(0.131738 0 0)
(0.131738 0 0)
(0.131738 0 0)
(0.131738 0 0)
(0.131738 0 0)
(0.131738 0 0)
(0.131738 0 0)
(0.131738 0 0)
(0.131738 0 0)
(0.131738 0 0)
(0.131738 0 0)
(0.131738 0 0)
(0.131738 0 0)
(0.131738 0 0)
(0.131738 0 0)
(0.131738 0 0)
(0.131738 0 0)
(0.131738 0 0)
(0.131738 0 0)
(0.131738 0 0)
(0.131738 0 0)
(0.131738 0 0)
(0.131738 0 0)
(0.131738 0 0)
(0.131738 0 0)
(0.131738 0 0)
(0.131738 0 0)
(0.131738 0 0)
(0.131738 0 0)
(0.131738 0 0)
(0.131738 0 0)
(0.131738 0 0)
(0.131738 0 0)
(0.131738 0 0)
(0.131738 0 0)
(0.131738 0 0)
(0.131738 0 0)
(0.131738 0 0)
(0.131738 0 0)
(0.131738 0 0)
(0.131738 0 0)
(0.131738 0 0)
(0.131738 0 0)
(0.131738 0 0)
(0.131738 0 0)
(0.131738 0 0)
(0.131738 0 0)
(0.131738 0 0)
(0.131738 0 0)
(0.131738 0 0)
(0.131738 0 0)
(0.131738 0 0)
(0.131738 0 0)
(0.131738 0 0)
(0.131738 0 0)
(0.131738 0 0)
(0.131738 0 0)
(0.131738 0 0)
(0.131738 0 0)
(0.131738 0 0)
(0.131738 0 0)
(0.131738 0 0)
(0.131738 0 0)
(0.131738 0 0)
(0.131738 0 0)
(0.131738 0 0)
(0.131738 0 0)
(0.131738 0 0)
(0.131738 0 0)
(0.131738 0 0)
(0.131738 0 0)
(0.131738 0 0)
(0.131738 0 0)
(0.131738 0 0)
(0.131738 0 0)
(0.131738 0 0)
(0.131738 0 0)
(0.131738 0 0)
(0.131738 0 0)
(0.131738 0 0)
(0.131738 0 0)
(0.131738 0 0)
(0.131738 0 0)
(0.131738 0 0)
(0.131738 0 0)
(0.131738 0 0)
(0.131738 0 0)
(0.131738 0 0)
(0.131738 0 0)
(0.131738 0 0)
(0.131738 0 0)
(0.131738 0 0)
(0.131738 0 0)
(0.131738 0 0)
(0.131738 0 0)
(0.131738 0 0)
(0.131738 0 0)
(0.131738 0 0)
(0.131738 0 0)
(0.131738 0 0)
(0.131738 0 0)
(0.131738 0 0)
(0.131738 0 0)
(0.131738 0 0)
(0.131738 0 0)
(0.131738 0 0)
(0.131738 0 0)
(0.131738 0 0)
(0.131738 0 0)
(0.131738 0 0)
(0.131738 0 0)
(0.131738 0 0)
(0.131738 0 0)
(0.131738 0 0)
(0.131738 0 0)
(0.131738 0 0)
(0.131738 0 0)
(0.131738 0 0)
(0.131738 0 0)
(0.131738 0 0)
(0.131738 0 0)
(0.131738 0 0)
(0.131738 0 0)
(0.131738 0 0)
(0.131738 0 0)
(0.131738 0 0)
(0.131738 0 0)
(0.131738 0 0)
(0.131738 0 0)
(0.131738 0 0)
(0.131738 0 0)
(0.131738 0 0)
(0.131738 0 0)
(0.131738 0 0)
(0.131738 0 0)
(0.131738 0 0)
(0.131738 0 0)
(0.131738 0 0)
(0.131738 0 0)
(0.131738 0 0)
(0.131738 0 0)
(0.131738 0 0)
(0.131738 0 0)
(0.131738 0 0)
(0.131738 0 0)
(0.131738 0 0)
(0.131738 0 0)
(0.131738 0 0)
(0.131738 0 0)
(0.131738 0 0)
(0.131738 0 0)
(0.131738 0 0)
(0.131738 0 0)
(0.131738 0 0)
(0.131738 0 0)
(0.131738 0 0)
(0.131738 0 0)
(0.131738 0 0)
(0.131738 0 0)
(0.131738 0 0)
(0.131738 0 0)
(0.131738 0 0)
(0.131738 0 0)
(0.131738 0 0)
(0.131738 0 0)
(0.131738 0 0)
(0.131738 0 0)
(0.131738 0 0)
(0.131738 0 0)
(0.131738 0 0)
(0.131738 0 0)
(0.131738 0 0)
(0.131738 0 0)
(0.131738 0 0)
(0.131738 0 0)
(0.131738 0 0)
(0.131738 0 0)
(0.131738 0 0)
(0.131738 0 0)
(0.131738 0 0)
(0.131738 0 0)
(0.131738 0 0)
(0.131738 0 0)
(0.131738 0 0)
(0.131738 0 0)
(0.131738 0 0)
(0.131738 0 0)
(0.131738 0 0)
(0.131738 0 0)
(0.131738 0 0)
(0.131738 0 0)
(0.131738 0 0)
(0.131738 0 0)
(0.131738 0 0)
(0.131738 0 0)
(0.131738 0 0)
(0.131738 0 0)
(0.131738 0 0)
(0.131738 0 0)
(0.131738 0 0)
(0.131738 0 0)
(0.131738 0 0)
(0.131738 0 0)
(0.131738 0 0)
(0.131738 0 0)
(0.131738 0 0)
(0.131738 0 0)
(0.131738 0 0)
(0.131738 0 0)
(0.131738 0 0)
(0.131738 0 0)
(0.131738 0 0)
(0.131738 0 0)
(0.131738 0 0)
(0.131738 0 0)
(0.131738 0 0)
(0.131738 0 0)
(0.131738 0 0)
(0.131738 0 0)
(0.131738 0 0)
(0.131738 0 0)
(0.131738 0 0)
(0.131738 0 0)
(0.131738 0 0)
(0.131738 0 0)
(0.131738 0 0)
(0.131738 0 0)
(0.131738 0 0)
(0.131738 0 0)
(0.131738 0 0)
(0.131738 0 0)
(0.131738 0 0)
(0.131738 0 0)
(0.131738 0 0)
(0.131738 0 0)
(0.131738 0 0)
(0.131738 0 0)
(0.131738 0 0)
(0.131738 0 0)
(0.131738 0 0)
(0.131738 0 0)
(0.131738 0 0)
(0.131738 0 0)
(0.131738 0 0)
(0.131738 0 0)
(0.131738 0 0)
(0.131738 0 0)
(0.131738 0 0)
(0.131738 0 0)
(0.131738 0 0)
(0.131738 0 0)
(0.131738 0 0)
(0.131738 0 0)
(0.131738 0 0)
(0.131738 0 0)
(0.131738 0 0)
(0.131738 0 0)
(0.131738 0 0)
(0.131738 0 0)
(0.131738 0 0)
(0.131738 0 0)
(0.131738 0 0)
(0.131738 0 0)
(0.131738 0 0)
(0.131738 0 0)
(0.131738 0 0)
(0.131738 0 0)
(0.131738 0 0)
(0.131738 0 0)
(0.131738 0 0)
(0.131738 0 0)
(0.131738 0 0)
(0.131738 0 0)
(0.131738 0 0)
(0.131738 0 0)
(0.131738 0 0)
(0.131738 0 0)
(0.131738 0 0)
(0.131738 0 0)
(0.131738 0 0)
(0.131738 0 0)
(0.131738 0 0)
(0.131738 0 0)
(0.131738 0 0)
(0.131738 0 0)
(0.131738 0 0)
(0.131738 0 0)
(0.131738 0 0)
(0.131738 0 0)
(0.131738 0 0)
(0.131738 0 0)
(0.131738 0 0)
(0.131738 0 0)
(0.131738 0 0)
(0.131738 0 0)
(0.131738 0 0)
(0.131738 0 0)
(0.131738 0 0)
(0.131738 0 0)
(0.131739 0 0)
(0.131737 0 0)
(0.131739 0 0)
(0.131737 0 0)
(0.131739 0 0)
(0.131737 0 0)
(0.131739 0 0)
(0.131737 0 0)
(0.131739 0 0)
(0.131737 0 0)
(0.131739 0 0)
(0.131737 0 0)
(0.131739 0 0)
(0.131737 0 0)
(0.131739 0 0)
(0.131737 0 0)
(0.131739 0 0)
(0.131737 0 0)
(0.131739 0 0)
(0.131737 0 0)
(0.131739 0 0)
(0.131737 0 0)
(0.131739 0 0)
(0.131736 0 0)
(0.13174 0 0)
(0.131736 0 0)
(0.13174 0 0)
(0.131736 0 0)
(0.13174 0 0)
(0.131736 0 0)
(0.13174 0 0)
(0.131736 0 0)
(0.13174 0 0)
(0.131736 0 0)
(0.13174 0 0)
(0.131735 0 0)
(0.131741 0 0)
(0.131735 0 0)
(0.131741 0 0)
(0.131735 0 0)
(0.131741 0 0)
(0.131735 0 0)
(0.131741 0 0)
(0.131734 0 0)
(0.131742 0 0)
(0.131734 0 0)
(0.131742 0 0)
(0.131734 0 0)
(0.131742 0 0)
(0.131734 0 0)
(0.131742 0 0)
(0.131733 0 0)
(0.131743 0 0)
(0.131733 0 0)
(0.131743 0 0)
(0.131732 0 0)
(0.131743 0 0)
(0.131732 0 0)
(0.131744 0 0)
(0.131732 0 0)
(0.131744 0 0)
(0.131731 0 0)
(0.131745 0 0)
(0.131731 0 0)
(0.131745 0 0)
(0.13173 0 0)
(0.131746 0 0)
(0.13173 0 0)
(0.131746 0 0)
(0.131729 0 0)
(0.131747 0 0)
(0.131729 0 0)
(0.131747 0 0)
(0.131728 0 0)
(0.131748 0 0)
(0.131727 0 0)
(0.131748 0 0)
(0.131727 0 0)
(0.131749 0 0)
(0.131726 0 0)
(0.131749 0 0)
(0.131725 0 0)
(0.13175 0 0)
(0.131724 0 0)
(0.13175 0 0)
(0.131724 0 0)
(0.131751 0 0)
(0.131723 0 0)
(0.131752 0 0)
(0.131722 0 0)
(0.131752 0 0)
(0.131721 0 0)
(0.131753 0 0)
(0.13172 0 0)
(0.131754 0 0)
(0.13172 0 0)
(0.131754 0 0)
(0.131719 0 0)
(0.131755 0 0)
(0.131718 0 0)
(0.131756 0 0)
(0.131717 0 0)
(0.131757 0 0)
(0.131716 0 0)
(0.131757 0 0)
(0.131715 0 0)
(0.131758 0 0)
(0.131714 0 0)
(0.131759 0 0)
(0.131713 0 0)
(0.131759 0 0)
(0.131712 0 0)
(0.13176 0 0)
(0.131711 0 0)
(0.131761 0 0)
(0.13171 0 0)
(0.131762 0 0)
(0.131709 0 0)
(0.131762 0 0)
(0.131707 0 0)
(0.131763 0 0)
(0.131706 0 0)
(0.131764 0 0)
(0.131705 0 0)
(0.131764 0 0)
(0.131704 0 0)
(0.131765 0 0)
(0.131703 0 0)
(0.131766 0 0)
(0.131702 0 0)
(0.131766 0 0)
(0.131701 0 0)
(0.131767 0 0)
(0.1317 0 0)
(0.131767 0 0)
(0.131699 0 0)
(0.131768 0 0)
(0.131698 0 0)
(0.131768 0 0)
(0.131698 0 0)
(0.131769 0 0)
(0.131697 0 0)
(0.13177 0 0)
(0.131696 0 0)
)
;

boundaryField
{
    topWall
    {
        type            empty;
    }
    bottomWall
    {
        type            empty;
    }
    leftAndRight_half1
    {
        type            cyclic;
    }
    leftAndRight_half0
    {
        type            cyclic;
    }
    frontAndBack
    {
        type            empty;
    }
}


// ************************************************************************* //
