/*--------------------------------*- C++ -*----------------------------------*\
  =========                 |
  \\      /  F ield         | OpenFOAM: The Open Source CFD Toolbox
   \\    /   O peration     | Website:  https://openfoam.org
    \\  /    A nd           | Version:  9
     \\/     M anipulation  |
\*---------------------------------------------------------------------------*/
FoamFile
{
    format      ascii;
    class       volVectorField;
    location    "4.2";
    object      U;
}
// * * * * * * * * * * * * * * * * * * * * * * * * * * * * * * * * * * * * * //

dimensions      [0 1 -1 0 0 0 0];

internalField   nonuniform List<vector> 
1000
(
(0.131768 0 0)
(0.131693 0 0)
(0.131769 0 0)
(0.131692 0 0)
(0.131769 0 0)
(0.131691 0 0)
(0.13177 0 0)
(0.13169 0 0)
(0.13177 0 0)
(0.131689 0 0)
(0.131771 0 0)
(0.131688 0 0)
(0.131771 0 0)
(0.131687 0 0)
(0.131772 0 0)
(0.131686 0 0)
(0.131772 0 0)
(0.131686 0 0)
(0.131772 0 0)
(0.131685 0 0)
(0.131773 0 0)
(0.131685 0 0)
(0.131773 0 0)
(0.131685 0 0)
(0.131774 0 0)
(0.131685 0 0)
(0.131775 0 0)
(0.131685 0 0)
(0.131775 0 0)
(0.131686 0 0)
(0.131776 0 0)
(0.131686 0 0)
(0.131777 0 0)
(0.131687 0 0)
(0.131778 0 0)
(0.131689 0 0)
(0.131779 0 0)
(0.13169 0 0)
(0.13178 0 0)
(0.131692 0 0)
(0.131782 0 0)
(0.131694 0 0)
(0.131784 0 0)
(0.131697 0 0)
(0.131786 0 0)
(0.1317 0 0)
(0.131788 0 0)
(0.131704 0 0)
(0.131791 0 0)
(0.131708 0 0)
(0.131794 0 0)
(0.131712 0 0)
(0.131797 0 0)
(0.131717 0 0)
(0.131801 0 0)
(0.131723 0 0)
(0.131806 0 0)
(0.131729 0 0)
(0.131811 0 0)
(0.131736 0 0)
(0.131816 0 0)
(0.131744 0 0)
(0.131822 0 0)
(0.131753 0 0)
(0.131829 0 0)
(0.131762 0 0)
(0.131837 0 0)
(0.131772 0 0)
(0.131845 0 0)
(0.131783 0 0)
(0.131855 0 0)
(0.131795 0 0)
(0.131865 0 0)
(0.131809 0 0)
(0.131876 0 0)
(0.131823 0 0)
(0.131888 0 0)
(0.131838 0 0)
(0.131902 0 0)
(0.131854 0 0)
(0.131916 0 0)
(0.131871 0 0)
(0.131933 0 0)
(0.131889 0 0)
(0.131952 0 0)
(0.131906 0 0)
(0.131977 0 0)
(0.131917 0 0)
(0.132013 0 0)
(0.131918 0 0)
(0.132068 0 0)
(0.131902 0 0)
(0.132146 0 0)
(0.131879 0 0)
(0.132234 0 0)
(0.131888 0 0)
(0.132297 0 0)
(0.13198 0 0)
(0.132327 0 0)
(0.132146 0 0)
(0.13238 0 0)
(0.132313 0 0)
(0.132481 0 0)
(0.132453 0 0)
(0.132595 0 0)
(0.132566 0 0)
(0.132691 0 0)
(0.132653 0 0)
(0.132761 0 0)
(0.132715 0 0)
(0.132809 0 0)
(0.132758 0 0)
(0.132841 0 0)
(0.13279 0 0)
(0.132865 0 0)
(0.132816 0 0)
(0.132885 0 0)
(0.13284 0 0)
(0.132905 0 0)
(0.132863 0 0)
(0.132924 0 0)
(0.132886 0 0)
(0.132944 0 0)
(0.13291 0 0)
(0.132966 0 0)
(0.132935 0 0)
(0.132988 0 0)
(0.132961 0 0)
(0.133011 0 0)
(0.132987 0 0)
(0.133035 0 0)
(0.133015 0 0)
(0.13306 0 0)
(0.133042 0 0)
(0.133085 0 0)
(0.133071 0 0)
(0.133111 0 0)
(0.1331 0 0)
(0.133138 0 0)
(0.133129 0 0)
(0.133166 0 0)
(0.133159 0 0)
(0.133194 0 0)
(0.13319 0 0)
(0.133223 0 0)
(0.13322 0 0)
(0.133252 0 0)
(0.133251 0 0)
(0.133282 0 0)
(0.133283 0 0)
(0.133311 0 0)
(0.133314 0 0)
(0.133341 0 0)
(0.133345 0 0)
(0.133371 0 0)
(0.133376 0 0)
(0.133401 0 0)
(0.133407 0 0)
(0.133431 0 0)
(0.133438 0 0)
(0.133461 0 0)
(0.133469 0 0)
(0.13349 0 0)
(0.133499 0 0)
(0.133519 0 0)
(0.133528 0 0)
(0.133548 0 0)
(0.133557 0 0)
(0.133576 0 0)
(0.133586 0 0)
(0.133603 0 0)
(0.133613 0 0)
(0.133629 0 0)
(0.133639 0 0)
(0.133655 0 0)
(0.133665 0 0)
(0.133679 0 0)
(0.133689 0 0)
(0.133702 0 0)
(0.133712 0 0)
(0.133724 0 0)
(0.133734 0 0)
(0.133745 0 0)
(0.133754 0 0)
(0.133763 0 0)
(0.133773 0 0)
(0.13378 0 0)
(0.133791 0 0)
(0.133795 0 0)
(0.133808 0 0)
(0.133807 0 0)
(0.133822 0 0)
(0.133819 0 0)
(0.133833 0 0)
(0.13383 0 0)
(0.133842 0 0)
(0.133842 0 0)
(0.13385 0 0)
(0.133854 0 0)
(0.133864 0 0)
(0.133871 0 0)
(0.133883 0 0)
(0.133887 0 0)
(0.133884 0 0)
(0.133854 0 0)
(0.133804 0 0)
(0.133724 0 0)
(0.133637 0 0)
(0.133545 0 0)
(0.13347 0 0)
(0.133408 0 0)
(0.133368 0 0)
(0.133338 0 0)
(0.133324 0 0)
(0.133314 0 0)
(0.133312 0 0)
(0.133309 0 0)
(0.133312 0 0)
(0.133311 0 0)
(0.133314 0 0)
(0.133314 0 0)
(0.133316 0 0)
(0.133315 0 0)
(0.133316 0 0)
(0.133315 0 0)
(0.133315 0 0)
(0.133312 0 0)
(0.133312 0 0)
(0.133309 0 0)
(0.133307 0 0)
(0.133303 0 0)
(0.133301 0 0)
(0.133296 0 0)
(0.133292 0 0)
(0.133287 0 0)
(0.133282 0 0)
(0.133276 0 0)
(0.133271 0 0)
(0.133263 0 0)
(0.133257 0 0)
(0.133249 0 0)
(0.133243 0 0)
(0.133234 0 0)
(0.133226 0 0)
(0.133217 0 0)
(0.133209 0 0)
(0.133198 0 0)
(0.133189 0 0)
(0.133179 0 0)
(0.133169 0 0)
(0.133157 0 0)
(0.133147 0 0)
(0.133135 0 0)
(0.133124 0 0)
(0.133112 0 0)
(0.1331 0 0)
(0.133087 0 0)
(0.133075 0 0)
(0.133061 0 0)
(0.133048 0 0)
(0.133035 0 0)
(0.133021 0 0)
(0.133007 0 0)
(0.132993 0 0)
(0.132979 0 0)
(0.132965 0 0)
(0.13295 0 0)
(0.132935 0 0)
(0.13292 0 0)
(0.132906 0 0)
(0.13289 0 0)
(0.132875 0 0)
(0.132859 0 0)
(0.132844 0 0)
(0.132828 0 0)
(0.132813 0 0)
(0.132797 0 0)
(0.132781 0 0)
(0.132766 0 0)
(0.13275 0 0)
(0.132734 0 0)
(0.132718 0 0)
(0.132702 0 0)
(0.132686 0 0)
(0.13267 0 0)
(0.132654 0 0)
(0.132638 0 0)
(0.132622 0 0)
(0.132606 0 0)
(0.132591 0 0)
(0.132575 0 0)
(0.132559 0 0)
(0.132544 0 0)
(0.132528 0 0)
(0.132513 0 0)
(0.132497 0 0)
(0.132482 0 0)
(0.132467 0 0)
(0.132452 0 0)
(0.132437 0 0)
(0.132422 0 0)
(0.132407 0 0)
(0.132393 0 0)
(0.132378 0 0)
(0.132364 0 0)
(0.13235 0 0)
(0.132336 0 0)
(0.132322 0 0)
(0.132308 0 0)
(0.132295 0 0)
(0.132281 0 0)
(0.132268 0 0)
(0.132255 0 0)
(0.132242 0 0)
(0.13223 0 0)
(0.132217 0 0)
(0.132205 0 0)
(0.132193 0 0)
(0.132181 0 0)
(0.132169 0 0)
(0.132157 0 0)
(0.132146 0 0)
(0.132135 0 0)
(0.132124 0 0)
(0.132113 0 0)
(0.132103 0 0)
(0.132092 0 0)
(0.132082 0 0)
(0.132072 0 0)
(0.132062 0 0)
(0.132053 0 0)
(0.132043 0 0)
(0.132034 0 0)
(0.132025 0 0)
(0.132016 0 0)
(0.132007 0 0)
(0.131999 0 0)
(0.131991 0 0)
(0.131983 0 0)
(0.131975 0 0)
(0.131967 0 0)
(0.13196 0 0)
(0.131952 0 0)
(0.131945 0 0)
(0.131938 0 0)
(0.131931 0 0)
(0.131925 0 0)
(0.131918 0 0)
(0.131912 0 0)
(0.131906 0 0)
(0.1319 0 0)
(0.131894 0 0)
(0.131889 0 0)
(0.131883 0 0)
(0.131878 0 0)
(0.131873 0 0)
(0.131868 0 0)
(0.131863 0 0)
(0.131858 0 0)
(0.131854 0 0)
(0.131849 0 0)
(0.131845 0 0)
(0.131841 0 0)
(0.131837 0 0)
(0.131833 0 0)
(0.131829 0 0)
(0.131825 0 0)
(0.131822 0 0)
(0.131818 0 0)
(0.131815 0 0)
(0.131812 0 0)
(0.131809 0 0)
(0.131806 0 0)
(0.131803 0 0)
(0.1318 0 0)
(0.131798 0 0)
(0.131795 0 0)
(0.131793 0 0)
(0.13179 0 0)
(0.131788 0 0)
(0.131786 0 0)
(0.131784 0 0)
(0.131782 0 0)
(0.13178 0 0)
(0.131778 0 0)
(0.131776 0 0)
(0.131774 0 0)
(0.131773 0 0)
(0.131771 0 0)
(0.131769 0 0)
(0.131768 0 0)
(0.131767 0 0)
(0.131765 0 0)
(0.131764 0 0)
(0.131763 0 0)
(0.131761 0 0)
(0.13176 0 0)
(0.131759 0 0)
(0.131758 0 0)
(0.131757 0 0)
(0.131756 0 0)
(0.131755 0 0)
(0.131754 0 0)
(0.131754 0 0)
(0.131753 0 0)
(0.131752 0 0)
(0.131751 0 0)
(0.131751 0 0)
(0.13175 0 0)
(0.131749 0 0)
(0.131749 0 0)
(0.131748 0 0)
(0.131748 0 0)
(0.131747 0 0)
(0.131747 0 0)
(0.131746 0 0)
(0.131746 0 0)
(0.131745 0 0)
(0.131745 0 0)
(0.131744 0 0)
(0.131744 0 0)
(0.131744 0 0)
(0.131743 0 0)
(0.131743 0 0)
(0.131743 0 0)
(0.131743 0 0)
(0.131742 0 0)
(0.131742 0 0)
(0.131742 0 0)
(0.131742 0 0)
(0.131741 0 0)
(0.131741 0 0)
(0.131741 0 0)
(0.131741 0 0)
(0.131741 0 0)
(0.13174 0 0)
(0.13174 0 0)
(0.13174 0 0)
(0.13174 0 0)
(0.13174 0 0)
(0.13174 0 0)
(0.13174 0 0)
(0.13174 0 0)
(0.131739 0 0)
(0.131739 0 0)
(0.131739 0 0)
(0.131739 0 0)
(0.131739 0 0)
(0.131739 0 0)
(0.131739 0 0)
(0.131739 0 0)
(0.131739 0 0)
(0.131739 0 0)
(0.131739 0 0)
(0.131739 0 0)
(0.131739 0 0)
(0.131739 0 0)
(0.131739 0 0)
(0.131739 0 0)
(0.131739 0 0)
(0.131738 0 0)
(0.131738 0 0)
(0.131738 0 0)
(0.131738 0 0)
(0.131738 0 0)
(0.131738 0 0)
(0.131738 0 0)
(0.131738 0 0)
(0.131738 0 0)
(0.131738 0 0)
(0.131738 0 0)
(0.131738 0 0)
(0.131738 0 0)
(0.131738 0 0)
(0.131738 0 0)
(0.131738 0 0)
(0.131738 0 0)
(0.131738 0 0)
(0.131738 0 0)
(0.131738 0 0)
(0.131738 0 0)
(0.131738 0 0)
(0.131738 0 0)
(0.131738 0 0)
(0.131738 0 0)
(0.131738 0 0)
(0.131738 0 0)
(0.131738 0 0)
(0.131738 0 0)
(0.131738 0 0)
(0.131738 0 0)
(0.131738 0 0)
(0.131738 0 0)
(0.131738 0 0)
(0.131738 0 0)
(0.131738 0 0)
(0.131738 0 0)
(0.131738 0 0)
(0.131738 0 0)
(0.131738 0 0)
(0.131738 0 0)
(0.131738 0 0)
(0.131738 0 0)
(0.131738 0 0)
(0.131738 0 0)
(0.131738 0 0)
(0.131738 0 0)
(0.131738 0 0)
(0.131738 0 0)
(0.131738 0 0)
(0.131738 0 0)
(0.131738 0 0)
(0.131738 0 0)
(0.131738 0 0)
(0.131738 0 0)
(0.131738 0 0)
(0.131738 0 0)
(0.131738 0 0)
(0.131738 0 0)
(0.131738 0 0)
(0.131738 0 0)
(0.131738 0 0)
(0.131738 0 0)
(0.131738 0 0)
(0.131738 0 0)
(0.131738 0 0)
(0.131738 0 0)
(0.131738 0 0)
(0.131738 0 0)
(0.131738 0 0)
(0.131738 0 0)
(0.131738 0 0)
(0.131738 0 0)
(0.131738 0 0)
(0.131738 0 0)
(0.131738 0 0)
(0.131738 0 0)
(0.131738 0 0)
(0.131738 0 0)
(0.131738 0 0)
(0.131738 0 0)
(0.131738 0 0)
(0.131738 0 0)
(0.131738 0 0)
(0.131738 0 0)
(0.131738 0 0)
(0.131738 0 0)
(0.131738 0 0)
(0.131738 0 0)
(0.131738 0 0)
(0.131738 0 0)
(0.131738 0 0)
(0.131738 0 0)
(0.131738 0 0)
(0.131738 0 0)
(0.131738 0 0)
(0.131738 0 0)
(0.131738 0 0)
(0.131738 0 0)
(0.131738 0 0)
(0.131738 0 0)
(0.131738 0 0)
(0.131738 0 0)
(0.131738 0 0)
(0.131738 0 0)
(0.131738 0 0)
(0.131738 0 0)
(0.131738 0 0)
(0.131738 0 0)
(0.131738 0 0)
(0.131738 0 0)
(0.131738 0 0)
(0.131738 0 0)
(0.131738 0 0)
(0.131738 0 0)
(0.131738 0 0)
(0.131738 0 0)
(0.131738 0 0)
(0.131738 0 0)
(0.131738 0 0)
(0.131738 0 0)
(0.131738 0 0)
(0.131738 0 0)
(0.131738 0 0)
(0.131738 0 0)
(0.131738 0 0)
(0.131738 0 0)
(0.131738 0 0)
(0.131738 0 0)
(0.131738 0 0)
(0.131738 0 0)
(0.131738 0 0)
(0.131738 0 0)
(0.131738 0 0)
(0.131738 0 0)
(0.131738 0 0)
(0.131738 0 0)
(0.131738 0 0)
(0.131738 0 0)
(0.131738 0 0)
(0.131738 0 0)
(0.131738 0 0)
(0.131738 0 0)
(0.131738 0 0)
(0.131738 0 0)
(0.131738 0 0)
(0.131738 0 0)
(0.131738 0 0)
(0.131738 0 0)
(0.131738 0 0)
(0.131738 0 0)
(0.131738 0 0)
(0.131738 0 0)
(0.131738 0 0)
(0.131738 0 0)
(0.131738 0 0)
(0.131738 0 0)
(0.131738 0 0)
(0.131738 0 0)
(0.131738 0 0)
(0.131738 0 0)
(0.131738 0 0)
(0.131738 0 0)
(0.131738 0 0)
(0.131738 0 0)
(0.131738 0 0)
(0.131738 0 0)
(0.131738 0 0)
(0.131738 0 0)
(0.131738 0 0)
(0.131738 0 0)
(0.131738 0 0)
(0.131738 0 0)
(0.131738 0 0)
(0.131738 0 0)
(0.131738 0 0)
(0.131738 0 0)
(0.131738 0 0)
(0.131738 0 0)
(0.131738 0 0)
(0.131738 0 0)
(0.131738 0 0)
(0.131738 0 0)
(0.131738 0 0)
(0.131738 0 0)
(0.131738 0 0)
(0.131738 0 0)
(0.131738 0 0)
(0.131738 0 0)
(0.131738 0 0)
(0.131738 0 0)
(0.131738 0 0)
(0.131738 0 0)
(0.131738 0 0)
(0.131738 0 0)
(0.131738 0 0)
(0.131738 0 0)
(0.131738 0 0)
(0.131738 0 0)
(0.131738 0 0)
(0.131738 0 0)
(0.131738 0 0)
(0.131738 0 0)
(0.131738 0 0)
(0.131738 0 0)
(0.131738 0 0)
(0.131738 0 0)
(0.131738 0 0)
(0.131738 0 0)
(0.131738 0 0)
(0.131738 0 0)
(0.131738 0 0)
(0.131738 0 0)
(0.131738 0 0)
(0.131738 0 0)
(0.131738 0 0)
(0.131738 0 0)
(0.131738 0 0)
(0.131738 0 0)
(0.131738 0 0)
(0.131738 0 0)
(0.131738 0 0)
(0.131738 0 0)
(0.131738 0 0)
(0.131738 0 0)
(0.131738 0 0)
(0.131738 0 0)
(0.131738 0 0)
(0.131738 0 0)
(0.131738 0 0)
(0.131738 0 0)
(0.131738 0 0)
(0.131738 0 0)
(0.131738 0 0)
(0.131738 0 0)
(0.131738 0 0)
(0.131738 0 0)
(0.131738 0 0)
(0.131738 0 0)
(0.131738 0 0)
(0.131738 0 0)
(0.131738 0 0)
(0.131738 0 0)
(0.131738 0 0)
(0.131738 0 0)
(0.131738 0 0)
(0.131738 0 0)
(0.131738 0 0)
(0.131738 0 0)
(0.131738 0 0)
(0.131738 0 0)
(0.131738 0 0)
(0.131738 0 0)
(0.131738 0 0)
(0.131738 0 0)
(0.131738 0 0)
(0.131738 0 0)
(0.131738 0 0)
(0.131738 0 0)
(0.131738 0 0)
(0.131738 0 0)
(0.131738 0 0)
(0.131738 0 0)
(0.131738 0 0)
(0.131738 0 0)
(0.131738 0 0)
(0.131738 0 0)
(0.131738 0 0)
(0.131738 0 0)
(0.131738 0 0)
(0.131738 0 0)
(0.131738 0 0)
(0.131738 0 0)
(0.131738 0 0)
(0.131738 0 0)
(0.131738 0 0)
(0.131738 0 0)
(0.131738 0 0)
(0.131738 0 0)
(0.131738 0 0)
(0.131738 0 0)
(0.131738 0 0)
(0.131738 0 0)
(0.131738 0 0)
(0.131738 0 0)
(0.131738 0 0)
(0.131738 0 0)
(0.131738 0 0)
(0.131738 0 0)
(0.131738 0 0)
(0.131738 0 0)
(0.131738 0 0)
(0.131738 0 0)
(0.131738 0 0)
(0.131738 0 0)
(0.131738 0 0)
(0.131738 0 0)
(0.131738 0 0)
(0.131738 0 0)
(0.131738 0 0)
(0.131738 0 0)
(0.131738 0 0)
(0.131738 0 0)
(0.131738 0 0)
(0.131738 0 0)
(0.131738 0 0)
(0.131738 0 0)
(0.131738 0 0)
(0.131738 0 0)
(0.131738 0 0)
(0.131738 0 0)
(0.131738 0 0)
(0.131738 0 0)
(0.131738 0 0)
(0.131738 0 0)
(0.131738 0 0)
(0.131738 0 0)
(0.131738 0 0)
(0.131738 0 0)
(0.131738 0 0)
(0.131738 0 0)
(0.131738 0 0)
(0.131738 0 0)
(0.131738 0 0)
(0.131738 0 0)
(0.131738 0 0)
(0.131738 0 0)
(0.131738 0 0)
(0.131738 0 0)
(0.131738 0 0)
(0.131738 0 0)
(0.131738 0 0)
(0.131738 0 0)
(0.131738 0 0)
(0.131738 0 0)
(0.131738 0 0)
(0.131738 0 0)
(0.131738 0 0)
(0.131738 0 0)
(0.131738 0 0)
(0.131738 0 0)
(0.131738 0 0)
(0.131738 0 0)
(0.131738 0 0)
(0.131738 0 0)
(0.131738 0 0)
(0.131738 0 0)
(0.131738 0 0)
(0.131738 0 0)
(0.131738 0 0)
(0.131738 0 0)
(0.131738 0 0)
(0.131738 0 0)
(0.131738 0 0)
(0.131738 0 0)
(0.131738 0 0)
(0.131738 0 0)
(0.131738 0 0)
(0.131738 0 0)
(0.131738 0 0)
(0.131738 0 0)
(0.131738 0 0)
(0.131738 0 0)
(0.131738 0 0)
(0.131738 0 0)
(0.131738 0 0)
(0.131738 0 0)
(0.131738 0 0)
(0.131738 0 0)
(0.131738 0 0)
(0.131738 0 0)
(0.131738 0 0)
(0.131738 0 0)
(0.131738 0 0)
(0.131738 0 0)
(0.131738 0 0)
(0.131738 0 0)
(0.131738 0 0)
(0.131738 0 0)
(0.131738 0 0)
(0.131738 0 0)
(0.131738 0 0)
(0.131738 0 0)
(0.131738 0 0)
(0.131738 0 0)
(0.131738 0 0)
(0.131738 0 0)
(0.131738 0 0)
(0.131738 0 0)
(0.131738 0 0)
(0.131738 0 0)
(0.131738 0 0)
(0.131738 0 0)
(0.131738 0 0)
(0.131738 0 0)
(0.131738 0 0)
(0.131738 0 0)
(0.131738 0 0)
(0.131738 0 0)
(0.131738 0 0)
(0.131738 0 0)
(0.131738 0 0)
(0.131738 0 0)
(0.131738 0 0)
(0.131738 0 0)
(0.131738 0 0)
(0.131738 0 0)
(0.131738 0 0)
(0.131738 0 0)
(0.131738 0 0)
(0.131738 0 0)
(0.131738 0 0)
(0.131738 0 0)
(0.131737 0 0)
(0.131739 0 0)
(0.131737 0 0)
(0.131739 0 0)
(0.131737 0 0)
(0.131739 0 0)
(0.131737 0 0)
(0.131739 0 0)
(0.131737 0 0)
(0.131739 0 0)
(0.131737 0 0)
(0.131739 0 0)
(0.131737 0 0)
(0.131739 0 0)
(0.131737 0 0)
(0.131739 0 0)
(0.131737 0 0)
(0.131739 0 0)
(0.131737 0 0)
(0.131739 0 0)
(0.131737 0 0)
(0.131739 0 0)
(0.131736 0 0)
(0.13174 0 0)
(0.131736 0 0)
(0.13174 0 0)
(0.131736 0 0)
(0.13174 0 0)
(0.131736 0 0)
(0.13174 0 0)
(0.131736 0 0)
(0.13174 0 0)
(0.131735 0 0)
(0.131741 0 0)
(0.131735 0 0)
(0.131741 0 0)
(0.131735 0 0)
(0.131741 0 0)
(0.131735 0 0)
(0.131741 0 0)
(0.131734 0 0)
(0.131742 0 0)
(0.131734 0 0)
(0.131742 0 0)
(0.131734 0 0)
(0.131742 0 0)
(0.131733 0 0)
(0.131743 0 0)
(0.131733 0 0)
(0.131743 0 0)
(0.131733 0 0)
(0.131743 0 0)
(0.131732 0 0)
(0.131744 0 0)
(0.131732 0 0)
(0.131744 0 0)
(0.131731 0 0)
(0.131745 0 0)
(0.131731 0 0)
(0.131745 0 0)
(0.13173 0 0)
(0.131746 0 0)
(0.131729 0 0)
(0.131746 0 0)
(0.131729 0 0)
(0.131747 0 0)
(0.131728 0 0)
(0.131747 0 0)
(0.131727 0 0)
(0.131748 0 0)
(0.131727 0 0)
(0.131748 0 0)
(0.131726 0 0)
(0.131749 0 0)
(0.131725 0 0)
(0.13175 0 0)
(0.131724 0 0)
(0.13175 0 0)
(0.131723 0 0)
(0.131751 0 0)
(0.131722 0 0)
(0.131752 0 0)
(0.131721 0 0)
(0.131753 0 0)
(0.131721 0 0)
(0.131753 0 0)
(0.131719 0 0)
(0.131754 0 0)
(0.131718 0 0)
(0.131755 0 0)
(0.131717 0 0)
(0.131756 0 0)
(0.131716 0 0)
(0.131756 0 0)
(0.131715 0 0)
(0.131757 0 0)
(0.131714 0 0)
(0.131758 0 0)
(0.131713 0 0)
(0.131759 0 0)
(0.131711 0 0)
(0.131759 0 0)
(0.13171 0 0)
(0.13176 0 0)
(0.131709 0 0)
(0.131761 0 0)
(0.131708 0 0)
(0.131762 0 0)
(0.131706 0 0)
(0.131763 0 0)
(0.131705 0 0)
(0.131763 0 0)
(0.131704 0 0)
(0.131764 0 0)
(0.131702 0 0)
(0.131765 0 0)
(0.131701 0 0)
(0.131765 0 0)
(0.1317 0 0)
(0.131766 0 0)
(0.131698 0 0)
(0.131767 0 0)
(0.131697 0 0)
(0.131767 0 0)
(0.131696 0 0)
(0.131768 0 0)
(0.131694 0 0)
)
;

boundaryField
{
    topWall
    {
        type            empty;
    }
    bottomWall
    {
        type            empty;
    }
    leftAndRight_half1
    {
        type            cyclic;
    }
    leftAndRight_half0
    {
        type            cyclic;
    }
    frontAndBack
    {
        type            empty;
    }
}


// ************************************************************************* //
