/*--------------------------------*- C++ -*----------------------------------*\
  =========                 |
  \\      /  F ield         | OpenFOAM: The Open Source CFD Toolbox
   \\    /   O peration     | Website:  https://openfoam.org
    \\  /    A nd           | Version:  9
     \\/     M anipulation  |
\*---------------------------------------------------------------------------*/
FoamFile
{
    format      ascii;
    class       volScalarField;
    location    "0.1";
    object      f_0;
}
// * * * * * * * * * * * * * * * * * * * * * * * * * * * * * * * * * * * * * //

dimensions      [1 -3 0 0 0 0 0];

internalField   nonuniform List<scalar> 
1000
(
666.667
666.667
666.667
666.667
666.667
666.667
666.667
666.667
666.667
666.667
666.667
666.667
666.667
666.667
666.667
666.667
666.667
666.667
666.667
666.667
666.667
666.667
666.667
666.667
666.667
666.667
666.667
666.667
666.667
666.667
666.667
666.667
666.667
666.667
666.667
666.667
666.667
666.667
666.667
666.667
666.667
666.667
666.667
666.667
666.667
666.667
666.667
666.667
666.667
666.667
666.667
666.667
666.667
666.667
666.667
666.667
666.667
666.667
666.667
666.667
666.667
666.667
666.667
666.667
666.667
666.667
666.667
666.667
666.667
666.667
666.667
666.667
666.667
666.667
666.667
666.667
666.667
666.667
666.667
666.667
666.667
666.667
666.667
666.667
666.667
666.667
666.667
666.667
666.667
666.667
666.667
666.667
666.667
666.667
666.667
666.667
666.667
666.667
666.667
666.667
666.667
666.667
666.667
666.667
666.667
666.667
666.667
666.667
666.667
666.667
666.667
666.667
666.667
666.667
666.667
666.667
666.667
666.667
666.667
666.667
666.667
666.667
666.667
666.667
666.667
666.667
666.667
666.667
666.667
666.667
666.667
666.667
666.667
666.667
666.667
666.667
666.667
666.667
666.667
666.667
666.667
666.667
666.667
666.667
666.667
666.667
666.667
666.667
666.667
666.667
666.667
666.667
666.667
666.667
666.667
666.667
666.667
666.667
666.667
666.667
666.667
666.667
666.667
666.667
666.667
666.667
666.667
666.667
666.667
666.667
666.667
666.667
666.667
666.667
666.667
666.667
666.667
666.667
666.667
666.667
666.667
666.667
666.667
666.667
666.667
666.667
666.667
666.667
666.667
666.667
666.667
666.667
666.667
666.667
666.667
666.667
666.667
666.667
666.667
666.667
666.667
666.667
666.667
666.667
666.667
666.667
666.667
666.667
666.667
666.667
666.667
666.667
666.667
666.667
666.667
666.667
666.667
666.667
666.667
666.667
666.667
666.667
666.667
666.667
666.667
666.667
666.667
666.667
666.667
666.667
666.667
666.667
666.667
666.667
666.667
666.667
666.667
666.667
666.667
666.667
666.667
666.667
666.667
666.667
666.667
666.667
666.667
666.667
666.667
666.667
666.667
666.667
666.667
666.667
666.667
666.667
666.667
666.667
666.667
666.667
666.667
666.667
666.667
666.667
666.667
666.667
666.667
666.667
666.667
666.667
666.667
666.667
666.667
666.667
666.667
666.667
666.667
666.667
666.667
666.667
666.667
666.667
666.667
666.667
666.667
666.667
666.667
666.667
666.667
666.667
666.667
666.667
666.666
666.666
666.666
666.666
666.666
666.666
666.666
666.666
666.666
666.666
666.666
666.666
666.666
666.666
666.666
666.666
666.666
666.666
666.666
666.666
666.666
666.666
666.665
666.665
666.665
666.665
666.665
666.665
666.665
666.665
666.664
666.664
666.664
666.664
666.664
666.663
666.663
666.663
666.662
666.662
666.662
666.661
666.661
666.661
666.66
666.66
666.659
666.659
666.658
666.658
666.657
666.656
666.656
666.655
666.654
666.653
666.652
666.652
666.651
666.65
666.649
666.647
666.646
666.645
666.644
666.643
666.641
666.64
666.638
666.637
666.635
666.633
666.631
666.63
666.628
666.626
666.624
666.622
666.619
666.617
666.615
666.612
666.61
666.607
666.604
666.601
666.599
666.596
666.593
666.59
666.586
666.583
666.58
666.576
666.573
666.569
666.565
666.562
666.558
666.554
666.55
666.546
666.542
666.538
666.533
666.529
666.525
666.52
666.516
666.511
666.507
666.502
666.497
666.493
666.488
666.483
666.478
666.473
666.468
666.464
666.459
666.454
666.449
666.444
666.439
666.434
666.429
666.424
666.419
666.413
666.408
666.403
666.398
666.393
666.388
666.383
666.379
666.374
666.369
666.364
666.359
666.354
666.349
666.345
666.34
666.335
666.331
666.326
666.322
666.317
666.313
666.308
666.304
666.3
666.295
666.291
666.287
666.283
666.279
666.275
666.271
666.267
666.263
666.26
666.256
666.252
666.249
666.245
666.242
666.238
666.235
666.232
666.229
666.226
666.222
666.219
666.217
666.214
666.211
666.208
666.205
666.203
666.2
666.198
666.196
666.193
666.191
666.189
666.187
666.185
666.183
666.181
666.179
666.177
666.175
666.174
666.172
666.171
666.169
666.168
666.167
666.166
666.164
666.163
666.162
666.162
666.161
666.16
666.159
666.159
666.158
666.158
666.158
666.158
666.158
666.158
666.158
666.158
666.158
666.159
666.159
666.16
666.161
666.162
666.163
666.164
666.166
666.167
666.169
666.171
666.173
666.175
666.178
666.18
666.183
666.186
666.19
666.193
666.197
666.201
666.206
666.211
666.216
666.222
666.228
666.234
666.241
666.248
666.256
666.265
666.274
666.284
666.294
666.306
666.318
666.331
666.344
666.359
666.375
666.392
666.41
666.43
666.451
666.473
666.497
666.523
666.55
666.58
666.611
666.644
666.68
666.718
666.758
666.8
666.846
666.893
666.944
666.997
667.053
667.111
667.172
667.235
667.3
667.367
667.436
667.506
667.577
667.649
667.72
667.791
667.86
667.927
667.992
668.053
668.11
668.162
668.209
668.25
668.283
668.31
668.33
668.341
668.345
668.341
668.33
668.311
668.286
668.254
668.217
668.174
668.127
668.076
668.022
667.966
667.908
667.85
667.79
667.731
667.672
667.615
667.558
667.504
667.451
667.4
667.352
667.305
667.261
667.22
667.181
667.144
667.109
667.077
667.046
667.018
666.992
666.967
666.944
666.923
666.904
666.885
666.869
666.853
666.839
666.826
666.813
666.802
666.792
666.782
666.773
666.765
666.758
666.751
666.744
666.738
666.733
666.728
666.723
666.719
666.715
666.711
666.708
666.705
666.702
666.699
666.697
666.694
666.692
666.69
666.689
666.687
666.685
666.684
666.683
666.681
666.68
666.679
666.678
666.677
666.677
666.676
666.675
666.674
666.674
666.673
666.673
666.672
666.672
666.671
666.671
666.671
666.67
666.67
666.67
666.67
666.669
666.669
666.669
666.669
666.669
666.668
666.668
666.668
666.668
666.668
666.668
666.668
666.668
666.668
666.667
666.667
666.667
666.667
666.667
666.667
666.667
666.667
666.667
666.667
666.667
666.667
666.667
666.667
666.667
666.667
666.667
666.667
666.667
666.667
666.667
666.667
666.667
666.667
666.667
666.667
666.667
666.667
666.667
666.667
666.667
666.667
666.667
666.667
666.667
666.667
666.667
666.667
666.667
666.667
666.667
666.667
666.667
666.667
666.667
666.667
666.667
666.667
666.667
666.667
666.667
666.667
666.667
666.667
666.667
666.667
666.667
666.667
666.667
666.667
666.667
666.667
666.667
666.667
666.667
666.667
666.667
666.667
666.667
666.667
666.667
666.667
666.667
666.667
666.667
666.667
666.667
666.667
666.667
666.667
666.667
666.667
666.667
666.667
666.667
666.667
666.667
666.667
666.667
666.667
666.667
666.667
666.667
666.667
666.667
666.667
666.667
666.667
666.667
666.667
666.667
666.667
666.667
666.667
666.667
666.667
666.667
666.667
666.667
666.667
666.667
666.667
666.667
666.667
666.667
666.667
666.667
666.667
666.667
666.667
666.667
666.667
666.667
666.667
666.667
666.667
666.667
666.667
666.667
666.667
666.667
666.667
666.667
666.667
666.667
666.667
666.667
666.667
666.667
666.667
666.667
666.667
666.667
666.667
666.667
666.667
666.667
666.667
666.667
666.667
666.667
666.667
666.667
666.667
666.667
666.667
666.667
666.667
666.667
666.667
666.667
666.667
666.667
666.667
666.667
666.667
666.667
666.667
666.667
666.667
666.667
666.667
666.667
666.667
666.667
666.667
666.667
666.667
666.667
666.667
666.667
666.667
666.667
666.667
666.667
666.667
666.667
666.667
666.667
666.667
666.667
666.667
666.667
666.667
666.667
666.667
666.667
666.667
666.667
666.667
666.667
666.667
666.667
666.667
666.667
666.667
666.667
666.667
666.667
666.667
666.667
666.667
666.667
666.667
666.667
666.667
666.667
666.667
666.667
666.667
666.667
666.667
666.667
666.667
666.667
666.667
666.667
666.667
666.667
666.667
666.667
666.667
666.667
666.667
666.667
666.667
666.667
666.667
666.667
666.667
666.667
666.667
666.667
666.667
666.667
666.667
666.667
666.667
666.667
666.667
666.667
666.667
666.667
666.667
666.667
666.667
666.667
666.667
666.667
666.667
666.667
666.667
666.667
666.667
666.667
666.667
666.667
666.667
666.667
666.667
666.667
666.667
666.667
666.667
666.667
666.667
666.667
666.667
666.667
666.667
666.667
666.667
666.667
666.667
666.667
666.667
666.667
666.667
666.667
666.667
666.667
666.667
666.667
666.667
666.667
666.667
666.667
666.667
666.667
666.667
)
;

boundaryField
{
    topWall
    {
        type            empty;
    }
    bottomWall
    {
        type            empty;
    }
    leftAndRight_half1
    {
        type            cyclic;
    }
    leftAndRight_half0
    {
        type            cyclic;
    }
    frontAndBack
    {
        type            empty;
    }
}


// ************************************************************************* //
