/*--------------------------------*- C++ -*----------------------------------*\
  =========                 |
  \\      /  F ield         | OpenFOAM: The Open Source CFD Toolbox
   \\    /   O peration     | Website:  https://openfoam.org
    \\  /    A nd           | Version:  9
     \\/     M anipulation  |
\*---------------------------------------------------------------------------*/
FoamFile
{
    format      ascii;
    class       volScalarField;
    location    "0.1";
    object      f_2;
}
// * * * * * * * * * * * * * * * * * * * * * * * * * * * * * * * * * * * * * //

dimensions      [1 -3 0 0 0 0 0];

internalField   nonuniform List<scalar> 
1000
(
164.481
164.481
164.481
164.481
164.481
164.481
164.481
164.481
164.481
164.481
164.481
164.481
164.481
164.481
164.481
164.481
164.481
164.481
164.481
164.481
164.481
164.481
164.481
164.481
164.481
164.481
164.481
164.481
164.481
164.481
164.481
164.481
164.481
164.481
164.481
164.481
164.481
164.481
164.481
164.481
164.481
164.481
164.481
164.481
164.481
164.481
164.481
164.481
164.481
164.481
164.481
164.481
164.481
164.481
164.481
164.481
164.481
164.481
164.481
164.481
164.481
164.481
164.481
164.481
164.481
164.481
164.481
164.481
164.481
164.481
164.481
164.481
164.481
164.481
164.481
164.481
164.481
164.481
164.481
164.481
164.481
164.481
164.481
164.481
164.481
164.481
164.481
164.481
164.481
164.481
164.481
164.481
164.481
164.481
164.481
164.481
164.481
164.481
164.481
164.481
164.481
164.481
164.481
164.481
164.481
164.481
164.481
164.481
164.481
164.481
164.481
164.481
164.481
164.481
164.481
164.481
164.481
164.481
164.481
164.481
164.481
164.481
164.481
164.481
164.481
164.481
164.481
164.481
164.481
164.481
164.481
164.481
164.481
164.481
164.481
164.481
164.481
164.481
164.481
164.481
164.481
164.481
164.481
164.481
164.481
164.481
164.481
164.481
164.481
164.481
164.481
164.481
164.481
164.481
164.481
164.481
164.481
164.481
164.481
164.481
164.481
164.481
164.481
164.481
164.481
164.481
164.481
164.481
164.481
164.481
164.481
164.481
164.481
164.481
164.481
164.481
164.481
164.481
164.481
164.481
164.481
164.481
164.481
164.481
164.481
164.481
164.481
164.481
164.481
164.481
164.481
164.481
164.481
164.481
164.481
164.481
164.481
164.481
164.481
164.481
164.481
164.481
164.481
164.481
164.481
164.481
164.481
164.481
164.481
164.481
164.481
164.481
164.481
164.481
164.481
164.481
164.481
164.481
164.481
164.481
164.481
164.481
164.481
164.481
164.481
164.481
164.481
164.481
164.481
164.481
164.481
164.481
164.481
164.481
164.481
164.481
164.481
164.481
164.481
164.481
164.481
164.481
164.481
164.481
164.481
164.481
164.481
164.481
164.481
164.481
164.481
164.481
164.481
164.481
164.481
164.481
164.481
164.481
164.481
164.481
164.481
164.481
164.481
164.481
164.481
164.481
164.481
164.481
164.481
164.481
164.481
164.481
164.481
164.481
164.481
164.481
164.481
164.481
164.481
164.481
164.481
164.481
164.481
164.481
164.481
164.481
164.481
164.481
164.481
164.48
164.48
164.48
164.48
164.48
164.48
164.48
164.48
164.48
164.479
164.479
164.479
164.479
164.479
164.478
164.478
164.478
164.477
164.477
164.477
164.476
164.476
164.475
164.475
164.474
164.473
164.473
164.472
164.471
164.47
164.469
164.468
164.467
164.466
164.465
164.463
164.462
164.46
164.458
164.456
164.454
164.452
164.45
164.447
164.444
164.441
164.438
164.435
164.431
164.427
164.423
164.419
164.414
164.409
164.403
164.398
164.392
164.385
164.378
164.371
164.363
164.355
164.346
164.336
164.326
164.316
164.305
164.293
164.281
164.267
164.253
164.239
164.223
164.207
164.19
164.172
164.153
164.133
164.112
164.09
164.067
164.042
164.017
163.99
163.963
163.933
163.903
163.871
163.838
163.803
163.767
163.73
163.691
163.65
163.607
163.563
163.518
163.47
163.421
163.37
163.317
163.262
163.205
163.147
163.086
163.024
162.959
162.892
162.823
162.752
162.679
162.604
162.526
162.447
162.365
162.281
162.194
162.105
162.014
161.921
161.825
161.727
161.627
161.524
161.419
161.312
161.202
161.09
160.976
160.859
160.74
160.619
160.495
160.369
160.241
160.11
159.977
159.842
159.705
159.565
159.423
159.279
159.133
158.984
158.833
158.681
158.526
158.369
158.21
158.049
157.886
157.721
157.554
157.386
157.215
157.042
156.868
156.692
156.514
156.334
156.153
155.97
155.785
155.599
155.411
155.222
155.031
154.839
154.645
154.45
154.253
154.055
153.856
153.656
153.454
153.251
153.047
152.842
152.636
152.428
152.22
152.011
151.8
151.589
151.377
151.164
150.95
150.736
150.52
150.304
150.087
149.87
149.652
149.433
149.214
148.994
148.774
148.554
148.333
148.111
147.889
147.667
147.445
147.222
146.999
146.777
146.553
146.33
146.107
145.884
145.66
145.437
145.214
144.991
144.768
144.545
144.323
144.101
143.879
143.658
143.437
143.216
142.996
142.777
142.558
142.34
142.123
141.906
141.69
141.476
141.262
141.049
140.837
140.627
140.418
140.21
140.003
139.798
139.595
139.394
139.194
138.996
138.801
138.607
138.416
138.228
138.042
137.859
137.678
137.501
137.328
137.158
136.992
136.83
136.672
136.52
136.372
136.229
136.092
135.961
135.837
135.719
135.609
135.507
135.413
135.328
135.253
135.188
135.134
135.091
135.061
135.045
135.042
135.055
135.084
135.13
135.194
135.278
135.381
135.506
135.654
135.826
136.022
136.244
136.493
136.77
137.076
137.412
137.778
138.175
138.602
139.061
139.551
140.072
140.622
141.201
141.807
142.439
143.095
143.773
144.469
145.182
145.908
146.643
147.386
148.131
148.877
149.619
150.354
151.079
151.792
152.489
153.169
153.829
154.466
155.081
155.671
156.236
156.775
157.288
157.774
158.235
158.669
159.079
159.463
159.824
160.162
160.478
160.773
161.048
161.304
161.541
161.762
161.968
162.158
162.334
162.497
162.648
162.788
162.917
163.037
163.147
163.249
163.343
163.43
163.511
163.585
163.653
163.717
163.775
163.829
163.879
163.925
163.967
164.007
164.043
164.076
164.107
164.136
164.162
164.187
164.209
164.23
164.25
164.267
164.284
164.299
164.313
164.326
164.338
164.349
164.359
164.369
164.378
164.386
164.393
164.4
164.407
164.413
164.418
164.423
164.428
164.432
164.436
164.44
164.443
164.446
164.449
164.452
164.454
164.456
164.458
164.46
164.462
164.464
164.465
164.466
164.468
164.469
164.47
164.471
164.472
164.473
164.473
164.474
164.475
164.475
164.476
164.476
164.477
164.477
164.477
164.478
164.478
164.478
164.479
164.479
164.479
164.479
164.479
164.48
164.48
164.48
164.48
164.48
164.48
164.48
164.48
164.48
164.481
164.481
164.481
164.481
164.481
164.481
164.481
164.481
164.481
164.481
164.481
164.481
164.481
164.481
164.481
164.481
164.481
164.481
164.481
164.481
164.481
164.481
164.481
164.481
164.481
164.481
164.481
164.481
164.481
164.481
164.481
164.481
164.481
164.481
164.481
164.481
164.481
164.481
164.481
164.481
164.481
164.481
164.481
164.481
164.481
164.481
164.481
164.481
164.481
164.481
164.481
164.481
164.481
164.481
164.481
164.481
164.481
164.481
164.481
164.481
164.481
164.481
164.481
164.481
164.481
164.481
164.481
164.481
164.481
164.481
164.481
164.481
164.481
164.481
164.481
164.481
164.481
164.481
164.481
164.481
164.481
164.481
164.481
164.481
164.481
164.481
164.481
164.481
164.481
164.481
164.481
164.481
164.481
164.481
164.481
164.481
164.481
164.481
164.481
164.481
164.481
164.481
164.481
164.481
164.481
164.481
164.481
164.481
164.481
164.481
164.481
164.481
164.481
164.481
164.481
164.481
164.481
164.481
164.481
164.481
164.481
164.481
164.481
164.481
164.481
164.481
164.481
164.481
164.481
164.481
164.481
164.481
164.481
164.481
164.481
164.481
164.481
164.481
164.481
164.481
164.481
164.481
164.481
164.481
164.481
164.481
164.481
164.481
164.481
164.481
164.481
164.481
164.481
164.481
164.481
164.481
164.481
164.481
164.481
164.481
164.481
164.481
164.481
164.481
164.481
164.481
164.481
164.481
164.481
164.481
164.481
164.481
164.481
164.481
164.481
164.481
164.481
164.481
164.481
164.481
164.481
164.481
164.481
164.481
164.481
164.481
164.481
164.481
164.481
164.481
164.481
164.481
164.481
164.481
164.481
164.481
164.481
164.481
164.481
164.481
164.481
164.481
164.481
164.481
164.481
164.481
164.481
164.481
164.481
164.481
164.481
164.481
164.481
164.481
164.481
164.481
164.481
164.481
164.481
164.481
164.481
164.481
164.481
164.481
164.481
164.481
164.481
164.481
164.481
164.481
164.481
164.481
164.481
164.481
164.481
164.481
164.481
164.481
164.481
164.481
164.481
164.481
164.481
164.481
164.481
164.481
164.481
164.481
164.481
164.481
164.481
164.481
164.481
164.481
164.481
164.481
164.481
164.481
164.481
164.481
164.481
164.481
164.481
164.481
164.481
164.481
164.481
164.481
164.481
164.481
164.481
164.481
164.481
164.481
164.481
164.481
164.481
164.481
164.481
164.481
164.481
164.481
)
;

boundaryField
{
    topWall
    {
        type            empty;
    }
    bottomWall
    {
        type            empty;
    }
    leftAndRight_half1
    {
        type            cyclic;
    }
    leftAndRight_half0
    {
        type            cyclic;
    }
    frontAndBack
    {
        type            empty;
    }
}


// ************************************************************************* //
