/*--------------------------------*- C++ -*----------------------------------*\
  =========                 |
  \\      /  F ield         | OpenFOAM: The Open Source CFD Toolbox
   \\    /   O peration     | Website:  https://openfoam.org
    \\  /    A nd           | Version:  9
     \\/     M anipulation  |
\*---------------------------------------------------------------------------*/
FoamFile
{
    format      ascii;
    class       volScalarField;
    location    "0.1";
    object      p;
}
// * * * * * * * * * * * * * * * * * * * * * * * * * * * * * * * * * * * * * //

dimensions      [1 -1 -2 0 0 0 0];

internalField   nonuniform List<scalar> 
1000
(
100097
100097
100097
100097
100097
100097
100097
100097
100097
100097
100097
100097
100097
100097
100097
100097
100097
100097
100097
100097
100097
100097
100097
100097
100097
100097
100097
100097
100097
100097
100097
100097
100097
100097
100097
100097
100097
100097
100097
100097
100097
100097
100097
100097
100097
100097
100097
100097
100097
100097
100097
100097
100097
100097
100097
100097
100097
100097
100097
100097
100097
100097
100097
100097
100097
100097
100097
100097
100097
100097
100097
100097
100097
100097
100097
100097
100097
100097
100097
100097
100097
100097
100097
100097
100097
100097
100097
100097
100097
100097
100097
100097
100097
100097
100097
100097
100097
100097
100097
100097
100097
100097
100097
100097
100097
100097
100097
100097
100097
100097
100097
100097
100097
100097
100097
100097
100097
100097
100097
100097
100097
100097
100097
100097
100097
100097
100097
100097
100097
100097
100097
100097
100097
100097
100097
100097
100097
100097
100097
100097
100097
100097
100097
100097
100097
100097
100097
100097
100097
100097
100097
100097
100097
100097
100097
100097
100097
100097
100097
100097
100097
100097
100097
100097
100097
100097
100097
100097
100097
100097
100097
100097
100097
100097
100097
100097
100097
100097
100097
100097
100097
100097
100097
100097
100097
100097
100097
100097
100097
100097
100097
100097
100097
100097
100097
100097
100097
100097
100097
100097
100097
100097
100097
100097
100097
100097
100097
100097
100097
100097
100097
100097
100097
100097
100097
100097
100097
100097
100097
100097
100097
100097
100097
100097
100097
100097
100097
100097
100097
100097
100097
100097
100097
100097
100097
100097
100097
100097
100097
100097
100097
100097
100097
100097
100097
100097
100097
100097
100097
100097
100097
100097
100097
100097
100097
100097
100097
100097
100097
100097
100097
100097
100097
100097
100097
100097
100097
100097
100097
100097
100097
100097
100097
100097
100097
100097
100097
100097
100096
100096
100096
100096
100096
100096
100096
100096
100096
100096
100096
100096
100096
100096
100096
100095
100095
100095
100095
100095
100095
100094
100094
100094
100094
100093
100093
100093
100092
100092
100091
100091
100090
100090
100089
100089
100088
100087
100086
100086
100085
100084
100083
100081
100080
100079
100078
100076
100074
100073
100071
100069
100067
100065
100062
100060
100057
100054
100051
100048
100044
100041
100037
100033
100029
100024
100019
100014
100009
100003
99997.3
99991.1
99984.6
99977.7
99970.5
99963
99955.1
99946.9
99938.3
99929.3
99919.9
99910.1
99899.9
99889.3
99878.3
99866.8
99854.9
99842.5
99829.7
99816.5
99802.8
99788.7
99774
99759
99743.5
99727.5
99711.1
99694.2
99676.9
99659.1
99641
99622.4
99603.4
99584
99564.2
99544.1
99523.6
99502.8
99481.7
99460.3
99438.6
99416.7
99394.6
99372.3
99349.9
99327.3
99304.6
99281.9
99259.1
99236.4
99213.7
99191.1
99168.7
99146.4
99124.3
99102.5
99081.1
99059.9
99039.2
99019
98999.2
98980.1
98961.5
98943.6
98926.4
98910
98894.5
98879.8
98866.1
98853.3
98841.7
98831.1
98821.7
98813.6
98806.7
98801.2
98797.1
98794.4
98793.3
98793.8
98795.9
98799.7
98805.2
98812.5
98821.7
98832.9
98846
98861.1
98878.3
98897.7
98919.2
98943
98969
98997.5
99028.3
99061.5
99097.3
99135.5
99176.4
99219.9
99266.1
99315
99366.6
99421.1
99478.4
99538.6
99601.7
99667.8
99736.9
99809
99884.3
99962.6
100044
100129
100217
100308
100402
100500
100601
100705
100813
100924
101038
101156
101278
101403
101531
101663
101799
101938
102080
102227
102377
102530
102687
102848
103012
103181
103352
103528
103707
103890
104076
104266
104460
104658
104859
105064
105272
105485
105700
105920
106143
106370
106600
106835
107072
107313
107558
107806
108058
108314
108572
108835
109100
109369
109641
109917
110196
110478
110763
111051
111343
111637
111935
112235
112538
112844
113153
113464
113778
114094
114412
114733
115056
115382
115709
116038
116369
116701
117035
117370
117706
118043
118381
118720
119059
119398
119737
120076
120414
120751
121087
121422
121755
122085
122413
122737
123058
123375
123687
123994
124295
124589
124875
125153
125421
125680
125926
126160
126380
126584
126772
126941
127089
127216
127318
127394
127442
127460
127445
127396
127310
127184
127018
126809
126555
126257
125911
125519
125081
124596
124066
123493
122878
122226
121539
120821
120076
119310
118526
117730
116927
116122
115319
114524
113740
112970
112220
111491
110786
110107
109456
108834
108242
107679
107147
106645
106172
105728
105312
104923
104560
104222
103908
103616
103345
103094
102861
102646
102448
102264
102095
101939
101795
101662
101540
101427
101323
101228
101140
101059
100984
100915
100852
100794
100740
100690
100645
100603
100564
100528
100495
100465
100437
100411
100387
100365
100345
100326
100308
100292
100277
100264
100251
100239
100228
100218
100209
100200
100192
100185
100178
100172
100166
100161
100156
100151
100147
100143
100139
100136
100133
100130
100127
100125
100123
100121
100119
100117
100115
100114
100112
100111
100110
100109
100108
100107
100106
100105
100105
100104
100103
100103
100102
100102
100101
100101
100101
100100
100100
100100
100099
100099
100099
100099
100099
100098
100098
100098
100098
100098
100098
100098
100098
100098
100097
100097
100097
100097
100097
100097
100097
100097
100097
100097
100097
100097
100097
100097
100097
100097
100097
100097
100097
100097
100097
100097
100097
100097
100097
100097
100097
100097
100097
100097
100097
100097
100097
100097
100097
100097
100097
100097
100097
100097
100097
100097
100097
100097
100097
100097
100097
100097
100097
100097
100097
100097
100097
100097
100097
100097
100097
100097
100097
100097
100097
100097
100097
100097
100097
100097
100097
100097
100097
100097
100097
100097
100097
100097
100097
100097
100097
100097
100097
100097
100097
100097
100097
100097
100097
100097
100097
100097
100097
100097
100097
100097
100097
100097
100097
100097
100097
100097
100097
100097
100097
100097
100097
100097
100097
100097
100097
100097
100097
100097
100097
100097
100097
100097
100097
100097
100097
100097
100097
100097
100097
100097
100097
100097
100097
100097
100097
100097
100097
100097
100097
100097
100097
100097
100097
100097
100097
100097
100097
100097
100097
100097
100097
100097
100097
100097
100097
100097
100097
100097
100097
100097
100097
100097
100097
100097
100097
100097
100097
100097
100097
100097
100097
100097
100097
100097
100097
100097
100097
100097
100097
100097
100097
100097
100097
100097
100097
100097
100097
100097
100097
100097
100097
100097
100097
100097
100097
100097
100097
100097
100097
100097
100097
100097
100097
100097
100097
100097
100097
100097
100097
100097
100097
100097
100097
100097
100097
100097
100097
100097
100097
100097
100097
100097
100097
100097
100097
100097
100097
100097
100097
100097
100097
100097
100097
100097
100097
100097
100097
100097
100097
100097
100097
100097
100097
100097
100097
100097
100097
100097
100097
100097
100097
100097
100097
100097
100097
100097
100097
100097
100097
100097
100097
100097
100097
100097
100097
100097
100097
100097
100097
100097
100097
100097
100097
100097
100097
100097
100097
100097
100097
100097
100097
100097
100097
100097
)
;

boundaryField
{
    topWall
    {
        type            empty;
    }
    bottomWall
    {
        type            empty;
    }
    leftAndRight_half1
    {
        type            cyclic;
    }
    leftAndRight_half0
    {
        type            cyclic;
    }
    frontAndBack
    {
        type            empty;
    }
}


// ************************************************************************* //
