/*--------------------------------*- C++ -*----------------------------------*\
  =========                 |
  \\      /  F ield         | OpenFOAM: The Open Source CFD Toolbox
   \\    /   O peration     | Website:  https://openfoam.org
    \\  /    A nd           | Version:  9
     \\/     M anipulation  |
\*---------------------------------------------------------------------------*/
FoamFile
{
    format      ascii;
    class       volVectorField;
    location    "0.1";
    object      U;
}
// * * * * * * * * * * * * * * * * * * * * * * * * * * * * * * * * * * * * * //

dimensions      [0 1 -1 0 0 0 0];

internalField   nonuniform List<vector> 
1000
(
(0.439989 0 0)
(0.439989 0 0)
(0.439989 0 0)
(0.439989 0 0)
(0.439989 0 0)
(0.439989 0 0)
(0.439989 0 0)
(0.439989 0 0)
(0.439989 0 0)
(0.439989 0 0)
(0.439989 0 0)
(0.439989 0 0)
(0.439989 0 0)
(0.439989 0 0)
(0.439989 0 0)
(0.439989 0 0)
(0.439989 0 0)
(0.439989 0 0)
(0.439989 0 0)
(0.439989 0 0)
(0.439989 0 0)
(0.439989 0 0)
(0.439989 0 0)
(0.439989 0 0)
(0.439989 0 0)
(0.439989 0 0)
(0.439989 0 0)
(0.439989 0 0)
(0.439989 0 0)
(0.439989 0 0)
(0.439989 0 0)
(0.439989 0 0)
(0.439989 0 0)
(0.439989 0 0)
(0.439989 0 0)
(0.439989 0 0)
(0.439989 0 0)
(0.439989 0 0)
(0.439989 0 0)
(0.439989 0 0)
(0.439989 0 0)
(0.439989 0 0)
(0.439989 0 0)
(0.439989 0 0)
(0.439989 0 0)
(0.439989 0 0)
(0.439989 0 0)
(0.439989 0 0)
(0.439989 0 0)
(0.439989 0 0)
(0.439989 0 0)
(0.439989 0 0)
(0.439989 0 0)
(0.439989 0 0)
(0.439989 0 0)
(0.439989 0 0)
(0.439989 0 0)
(0.439989 0 0)
(0.439989 0 0)
(0.439989 0 0)
(0.439989 0 0)
(0.439989 0 0)
(0.439989 0 0)
(0.439989 0 0)
(0.439989 0 0)
(0.439989 0 0)
(0.439989 0 0)
(0.439989 0 0)
(0.439989 0 0)
(0.439989 0 0)
(0.439989 0 0)
(0.439989 0 0)
(0.439989 0 0)
(0.439989 0 0)
(0.439989 0 0)
(0.439989 0 0)
(0.439989 0 0)
(0.439989 0 0)
(0.439989 0 0)
(0.439989 0 0)
(0.439989 0 0)
(0.439989 0 0)
(0.439989 0 0)
(0.439989 0 0)
(0.439989 0 0)
(0.439989 0 0)
(0.439989 0 0)
(0.439989 0 0)
(0.439989 0 0)
(0.439989 0 0)
(0.439989 0 0)
(0.439989 0 0)
(0.439989 0 0)
(0.439989 0 0)
(0.439989 0 0)
(0.439989 0 0)
(0.439989 0 0)
(0.439989 0 0)
(0.439989 0 0)
(0.439989 0 0)
(0.439989 0 0)
(0.439989 0 0)
(0.439989 0 0)
(0.439989 0 0)
(0.439989 0 0)
(0.439989 0 0)
(0.439989 0 0)
(0.439989 0 0)
(0.439989 0 0)
(0.439989 0 0)
(0.439989 0 0)
(0.439989 0 0)
(0.439989 0 0)
(0.439989 0 0)
(0.439989 0 0)
(0.439989 0 0)
(0.439989 0 0)
(0.439989 0 0)
(0.439989 0 0)
(0.439989 0 0)
(0.439989 0 0)
(0.439989 0 0)
(0.439989 0 0)
(0.439989 0 0)
(0.439989 0 0)
(0.439989 0 0)
(0.439989 0 0)
(0.439989 0 0)
(0.439989 0 0)
(0.439989 0 0)
(0.439989 0 0)
(0.439989 0 0)
(0.439989 0 0)
(0.439989 0 0)
(0.439989 0 0)
(0.439989 0 0)
(0.439989 0 0)
(0.439989 0 0)
(0.439989 0 0)
(0.439989 0 0)
(0.439989 0 0)
(0.439989 0 0)
(0.439989 0 0)
(0.439989 0 0)
(0.439989 0 0)
(0.439989 0 0)
(0.439989 0 0)
(0.439989 0 0)
(0.439989 0 0)
(0.439989 0 0)
(0.439989 0 0)
(0.439989 0 0)
(0.439989 0 0)
(0.439989 0 0)
(0.439989 0 0)
(0.439989 0 0)
(0.439989 0 0)
(0.439989 0 0)
(0.439989 0 0)
(0.439989 0 0)
(0.439989 0 0)
(0.439989 0 0)
(0.439989 0 0)
(0.439989 0 0)
(0.439989 0 0)
(0.439989 0 0)
(0.439989 0 0)
(0.439989 0 0)
(0.439989 0 0)
(0.439989 0 0)
(0.439989 0 0)
(0.439989 0 0)
(0.439989 0 0)
(0.439989 0 0)
(0.439989 0 0)
(0.439989 0 0)
(0.439989 0 0)
(0.439989 0 0)
(0.439989 0 0)
(0.439989 0 0)
(0.439989 0 0)
(0.439989 0 0)
(0.439989 0 0)
(0.439989 0 0)
(0.439989 0 0)
(0.439989 0 0)
(0.439989 0 0)
(0.439989 0 0)
(0.439989 0 0)
(0.439989 0 0)
(0.439989 0 0)
(0.439989 0 0)
(0.439989 0 0)
(0.439989 0 0)
(0.439989 0 0)
(0.439989 0 0)
(0.439989 0 0)
(0.439989 0 0)
(0.439989 0 0)
(0.439989 0 0)
(0.439989 0 0)
(0.439989 0 0)
(0.439989 0 0)
(0.439989 0 0)
(0.439989 0 0)
(0.439989 0 0)
(0.439989 0 0)
(0.439989 0 0)
(0.439989 0 0)
(0.439989 0 0)
(0.439989 0 0)
(0.439989 0 0)
(0.439989 0 0)
(0.439989 0 0)
(0.439989 0 0)
(0.439989 0 0)
(0.439989 0 0)
(0.439989 0 0)
(0.439989 0 0)
(0.439989 0 0)
(0.439989 0 0)
(0.439989 0 0)
(0.439989 0 0)
(0.439989 0 0)
(0.439989 0 0)
(0.439989 0 0)
(0.439989 0 0)
(0.439989 0 0)
(0.439989 0 0)
(0.439989 0 0)
(0.439989 0 0)
(0.439989 0 0)
(0.439989 0 0)
(0.439989 0 0)
(0.439989 0 0)
(0.439989 0 0)
(0.439989 0 0)
(0.439989 0 0)
(0.439989 0 0)
(0.439989 0 0)
(0.439989 0 0)
(0.43999 0 0)
(0.43999 0 0)
(0.43999 0 0)
(0.43999 0 0)
(0.43999 0 0)
(0.43999 0 0)
(0.43999 0 0)
(0.43999 0 0)
(0.439991 0 0)
(0.439991 0 0)
(0.439991 0 0)
(0.439991 0 0)
(0.439992 0 0)
(0.439992 0 0)
(0.439992 0 0)
(0.439993 0 0)
(0.439993 0 0)
(0.439994 0 0)
(0.439994 0 0)
(0.439995 0 0)
(0.439996 0 0)
(0.439996 0 0)
(0.439997 0 0)
(0.439998 0 0)
(0.439999 0 0)
(0.440001 0 0)
(0.440002 0 0)
(0.440004 0 0)
(0.440005 0 0)
(0.440007 0 0)
(0.440009 0 0)
(0.440012 0 0)
(0.440014 0 0)
(0.440017 0 0)
(0.44002 0 0)
(0.440024 0 0)
(0.440028 0 0)
(0.440032 0 0)
(0.440037 0 0)
(0.440042 0 0)
(0.440048 0 0)
(0.440055 0 0)
(0.440062 0 0)
(0.44007 0 0)
(0.440078 0 0)
(0.440088 0 0)
(0.440099 0 0)
(0.44011 0 0)
(0.440123 0 0)
(0.440137 0 0)
(0.440153 0 0)
(0.44017 0 0)
(0.440189 0 0)
(0.440209 0 0)
(0.440232 0 0)
(0.440257 0 0)
(0.440284 0 0)
(0.440314 0 0)
(0.440346 0 0)
(0.440382 0 0)
(0.440421 0 0)
(0.440464 0 0)
(0.440511 0 0)
(0.440561 0 0)
(0.440617 0 0)
(0.440678 0 0)
(0.440744 0 0)
(0.440816 0 0)
(0.440894 0 0)
(0.440979 0 0)
(0.441072 0 0)
(0.441173 0 0)
(0.441283 0 0)
(0.441402 0 0)
(0.441531 0 0)
(0.441671 0 0)
(0.441823 0 0)
(0.441987 0 0)
(0.442165 0 0)
(0.442358 0 0)
(0.442567 0 0)
(0.442792 0 0)
(0.443036 0 0)
(0.443299 0 0)
(0.443582 0 0)
(0.443888 0 0)
(0.444218 0 0)
(0.444573 0 0)
(0.444956 0 0)
(0.445367 0 0)
(0.44581 0 0)
(0.446285 0 0)
(0.446796 0 0)
(0.447344 0 0)
(0.447931 0 0)
(0.448562 0 0)
(0.449237 0 0)
(0.44996 0 0)
(0.450733 0 0)
(0.451561 0 0)
(0.452445 0 0)
(0.453389 0 0)
(0.454398 0 0)
(0.455473 0 0)
(0.45662 0 0)
(0.457842 0 0)
(0.459143 0 0)
(0.460527 0 0)
(0.462 0 0)
(0.463565 0 0)
(0.465227 0 0)
(0.466991 0 0)
(0.468863 0 0)
(0.470847 0 0)
(0.47295 0 0)
(0.475176 0 0)
(0.477531 0 0)
(0.480022 0 0)
(0.482655 0 0)
(0.485435 0 0)
(0.488369 0 0)
(0.491464 0 0)
(0.494727 0 0)
(0.498165 0 0)
(0.501783 0 0)
(0.505591 0 0)
(0.509594 0 0)
(0.5138 0 0)
(0.518218 0 0)
(0.522854 0 0)
(0.527716 0 0)
(0.532812 0 0)
(0.53815 0 0)
(0.543738 0 0)
(0.549584 0 0)
(0.555696 0 0)
(0.562082 0 0)
(0.56875 0 0)
(0.575709 0 0)
(0.582967 0 0)
(0.590531 0 0)
(0.59841 0 0)
(0.606612 0 0)
(0.615146 0 0)
(0.624018 0 0)
(0.633238 0 0)
(0.642812 0 0)
(0.652749 0 0)
(0.663056 0 0)
(0.673741 0 0)
(0.684812 0 0)
(0.696274 0 0)
(0.708136 0 0)
(0.720405 0 0)
(0.733087 0 0)
(0.746188 0 0)
(0.759716 0 0)
(0.773676 0 0)
(0.788074 0 0)
(0.802915 0 0)
(0.818206 0 0)
(0.833952 0 0)
(0.850157 0 0)
(0.866826 0 0)
(0.883964 0 0)
(0.901575 0 0)
(0.919662 0 0)
(0.93823 0 0)
(0.957281 0 0)
(0.976819 0 0)
(0.996847 0 0)
(1.01737 0 0)
(1.03838 0 0)
(1.05989 0 0)
(1.0819 0 0)
(1.10441 0 0)
(1.12742 0 0)
(1.15092 0 0)
(1.17494 0 0)
(1.19945 0 0)
(1.22446 0 0)
(1.24998 0 0)
(1.276 0 0)
(1.30251 0 0)
(1.32953 0 0)
(1.35704 0 0)
(1.38505 0 0)
(1.41356 0 0)
(1.44256 0 0)
(1.47204 0 0)
(1.50202 0 0)
(1.53248 0 0)
(1.56342 0 0)
(1.59484 0 0)
(1.62674 0 0)
(1.65911 0 0)
(1.69194 0 0)
(1.72525 0 0)
(1.75901 0 0)
(1.79323 0 0)
(1.8279 0 0)
(1.86302 0 0)
(1.89859 0 0)
(1.93459 0 0)
(1.97102 0 0)
(2.00789 0 0)
(2.04518 0 0)
(2.08289 0 0)
(2.12101 0 0)
(2.15954 0 0)
(2.19847 0 0)
(2.2378 0 0)
(2.27752 0 0)
(2.31763 0 0)
(2.35811 0 0)
(2.39898 0 0)
(2.44021 0 0)
(2.4818 0 0)
(2.52375 0 0)
(2.56605 0 0)
(2.6087 0 0)
(2.65168 0 0)
(2.695 0 0)
(2.73864 0 0)
(2.7826 0 0)
(2.82688 0 0)
(2.87146 0 0)
(2.91635 0 0)
(2.96153 0 0)
(3.007 0 0)
(3.05276 0 0)
(3.09878 0 0)
(3.14508 0 0)
(3.19164 0 0)
(3.23846 0 0)
(3.28553 0 0)
(3.33284 0 0)
(3.38039 0 0)
(3.42817 0 0)
(3.47618 0 0)
(3.5244 0 0)
(3.57283 0 0)
(3.62146 0 0)
(3.6703 0 0)
(3.71932 0 0)
(3.76853 0 0)
(3.81791 0 0)
(3.86746 0 0)
(3.91718 0 0)
(3.96705 0 0)
(4.01707 0 0)
(4.06723 0 0)
(4.11752 0 0)
(4.16795 0 0)
(4.21848 0 0)
(4.26913 0 0)
(4.31989 0 0)
(4.37074 0 0)
(4.42167 0 0)
(4.47269 0 0)
(4.52378 0 0)
(4.57492 0 0)
(4.62613 0 0)
(4.67737 0 0)
(4.72865 0 0)
(4.77996 0 0)
(4.83129 0 0)
(4.88262 0 0)
(4.93394 0 0)
(4.98525 0 0)
(5.03654 0 0)
(5.08778 0 0)
(5.13898 0 0)
(5.19012 0 0)
(5.24118 0 0)
(5.29216 0 0)
(5.34303 0 0)
(5.39379 0 0)
(5.44442 0 0)
(5.4949 0 0)
(5.54521 0 0)
(5.59535 0 0)
(5.64529 0 0)
(5.69501 0 0)
(5.74449 0 0)
(5.79371 0 0)
(5.84264 0 0)
(5.89127 0 0)
(5.93957 0 0)
(5.9875 0 0)
(6.03505 0 0)
(6.08218 0 0)
(6.12885 0 0)
(6.17505 0 0)
(6.22071 0 0)
(6.26582 0 0)
(6.31032 0 0)
(6.35416 0 0)
(6.39732 0 0)
(6.43972 0 0)
(6.48132 0 0)
(6.52205 0 0)
(6.56186 0 0)
(6.60067 0 0)
(6.63842 0 0)
(6.67502 0 0)
(6.7104 0 0)
(6.74445 0 0)
(6.77709 0 0)
(6.80822 0 0)
(6.83772 0 0)
(6.86547 0 0)
(6.89136 0 0)
(6.91524 0 0)
(6.93697 0 0)
(6.95641 0 0)
(6.97338 0 0)
(6.98771 0 0)
(6.99923 0 0)
(7.00773 0 0)
(7.01302 0 0)
(7.01487 0 0)
(7.01308 0 0)
(7.00739 0 0)
(6.99757 0 0)
(6.98337 0 0)
(6.96453 0 0)
(6.94079 0 0)
(6.91188 0 0)
(6.87754 0 0)
(6.8375 0 0)
(6.79152 0 0)
(6.73933 0 0)
(6.68072 0 0)
(6.61547 0 0)
(6.5434 0 0)
(6.46434 0 0)
(6.37819 0 0)
(6.28486 0 0)
(6.18434 0 0)
(6.07664 0 0)
(5.96187 0 0)
(5.84018 0 0)
(5.71179 0 0)
(5.57701 0 0)
(5.43619 0 0)
(5.28978 0 0)
(5.1383 0 0)
(4.98231 0 0)
(4.82245 0 0)
(4.6594 0 0)
(4.4939 0 0)
(4.32668 0 0)
(4.15853 0 0)
(3.99022 0 0)
(3.82251 0 0)
(3.65616 0 0)
(3.49187 0 0)
(3.33032 0 0)
(3.17213 0 0)
(3.01785 0 0)
(2.86798 0 0)
(2.72295 0 0)
(2.5831 0 0)
(2.44873 0 0)
(2.32004 0 0)
(2.19719 0 0)
(2.08026 0 0)
(1.96927 0 0)
(1.8642 0 0)
(1.76499 0 0)
(1.67153 0 0)
(1.58366 0 0)
(1.50123 0 0)
(1.42404 0 0)
(1.35187 0 0)
(1.28451 0 0)
(1.22173 0 0)
(1.16329 0 0)
(1.10895 0 0)
(1.05848 0 0)
(1.01165 0 0)
(0.968229 0 0)
(0.928007 0 0)
(0.890768 0 0)
(0.856313 0 0)
(0.824448 0 0)
(0.794992 0 0)
(0.767773 0 0)
(0.742628 0 0)
(0.719405 0 0)
(0.697961 0 0)
(0.678164 0 0)
(0.659888 0 0)
(0.643018 0 0)
(0.627447 0 0)
(0.613074 0 0)
(0.599808 0 0)
(0.587563 0 0)
(0.57626 0 0)
(0.565825 0 0)
(0.556191 0 0)
(0.547297 0 0)
(0.539083 0 0)
(0.531499 0 0)
(0.524494 0 0)
(0.518024 0 0)
(0.512048 0 0)
(0.506527 0 0)
(0.501426 0 0)
(0.496713 0 0)
(0.492358 0 0)
(0.488334 0 0)
(0.484615 0 0)
(0.481178 0 0)
(0.478002 0 0)
(0.475066 0 0)
(0.472353 0 0)
(0.469845 0 0)
(0.467528 0 0)
(0.465386 0 0)
(0.463406 0 0)
(0.461577 0 0)
(0.459887 0 0)
(0.458326 0 0)
(0.456883 0 0)
(0.455551 0 0)
(0.45432 0 0)
(0.453183 0 0)
(0.452133 0 0)
(0.451165 0 0)
(0.45027 0 0)
(0.449445 0 0)
(0.448683 0 0)
(0.447981 0 0)
(0.447333 0 0)
(0.446735 0 0)
(0.446184 0 0)
(0.445677 0 0)
(0.445209 0 0)
(0.444778 0 0)
(0.444381 0 0)
(0.444016 0 0)
(0.44368 0 0)
(0.44337 0 0)
(0.443086 0 0)
(0.442824 0 0)
(0.442584 0 0)
(0.442363 0 0)
(0.44216 0 0)
(0.441974 0 0)
(0.441803 0 0)
(0.441646 0 0)
(0.441502 0 0)
(0.44137 0 0)
(0.441249 0 0)
(0.441138 0 0)
(0.441036 0 0)
(0.440943 0 0)
(0.440858 0 0)
(0.440781 0 0)
(0.440709 0 0)
(0.440644 0 0)
(0.440585 0 0)
(0.440531 0 0)
(0.440481 0 0)
(0.440436 0 0)
(0.440395 0 0)
(0.440357 0 0)
(0.440323 0 0)
(0.440292 0 0)
(0.440263 0 0)
(0.440238 0 0)
(0.440214 0 0)
(0.440193 0 0)
(0.440173 0 0)
(0.440156 0 0)
(0.44014 0 0)
(0.440125 0 0)
(0.440112 0 0)
(0.4401 0 0)
(0.440089 0 0)
(0.440079 0 0)
(0.44007 0 0)
(0.440062 0 0)
(0.440055 0 0)
(0.440048 0 0)
(0.440042 0 0)
(0.440037 0 0)
(0.440032 0 0)
(0.440028 0 0)
(0.440024 0 0)
(0.44002 0 0)
(0.440017 0 0)
(0.440014 0 0)
(0.440011 0 0)
(0.440009 0 0)
(0.440007 0 0)
(0.440005 0 0)
(0.440003 0 0)
(0.440002 0 0)
(0.440001 0 0)
(0.439999 0 0)
(0.439998 0 0)
(0.439997 0 0)
(0.439996 0 0)
(0.439995 0 0)
(0.439995 0 0)
(0.439994 0 0)
(0.439994 0 0)
(0.439993 0 0)
(0.439993 0 0)
(0.439992 0 0)
(0.439992 0 0)
(0.439992 0 0)
(0.439991 0 0)
(0.439991 0 0)
(0.439991 0 0)
(0.439991 0 0)
(0.43999 0 0)
(0.43999 0 0)
(0.43999 0 0)
(0.43999 0 0)
(0.43999 0 0)
(0.43999 0 0)
(0.43999 0 0)
(0.43999 0 0)
(0.439989 0 0)
(0.439989 0 0)
(0.439989 0 0)
(0.439989 0 0)
(0.439989 0 0)
(0.439989 0 0)
(0.439989 0 0)
(0.439989 0 0)
(0.439989 0 0)
(0.439989 0 0)
(0.439989 0 0)
(0.439989 0 0)
(0.439989 0 0)
(0.439989 0 0)
(0.439989 0 0)
(0.439989 0 0)
(0.439989 0 0)
(0.439989 0 0)
(0.439989 0 0)
(0.439989 0 0)
(0.439989 0 0)
(0.439989 0 0)
(0.439989 0 0)
(0.439989 0 0)
(0.439989 0 0)
(0.439989 0 0)
(0.439989 0 0)
(0.439989 0 0)
(0.439989 0 0)
(0.439989 0 0)
(0.439989 0 0)
(0.439989 0 0)
(0.439989 0 0)
(0.439989 0 0)
(0.439989 0 0)
(0.439989 0 0)
(0.439989 0 0)
(0.439989 0 0)
(0.439989 0 0)
(0.439989 0 0)
(0.439989 0 0)
(0.439989 0 0)
(0.439989 0 0)
(0.439989 0 0)
(0.439989 0 0)
(0.439989 0 0)
(0.439989 0 0)
(0.439989 0 0)
(0.439989 0 0)
(0.439989 0 0)
(0.439989 0 0)
(0.439989 0 0)
(0.439989 0 0)
(0.439989 0 0)
(0.439989 0 0)
(0.439989 0 0)
(0.439989 0 0)
(0.439989 0 0)
(0.439989 0 0)
(0.439989 0 0)
(0.439989 0 0)
(0.439989 0 0)
(0.439989 0 0)
(0.439989 0 0)
(0.439989 0 0)
(0.439989 0 0)
(0.439989 0 0)
(0.439989 0 0)
(0.439989 0 0)
(0.439989 0 0)
(0.439989 0 0)
(0.439989 0 0)
(0.439989 0 0)
(0.439989 0 0)
(0.439989 0 0)
(0.439989 0 0)
(0.439989 0 0)
(0.439989 0 0)
(0.439989 0 0)
(0.439989 0 0)
(0.439989 0 0)
(0.439989 0 0)
(0.439989 0 0)
(0.439989 0 0)
(0.439989 0 0)
(0.439989 0 0)
(0.439989 0 0)
(0.439989 0 0)
(0.439989 0 0)
(0.439989 0 0)
(0.439989 0 0)
(0.439989 0 0)
(0.439989 0 0)
(0.439989 0 0)
(0.439989 0 0)
(0.439989 0 0)
(0.439989 0 0)
(0.439989 0 0)
(0.439989 0 0)
(0.439989 0 0)
(0.439989 0 0)
(0.439989 0 0)
(0.439989 0 0)
(0.439989 0 0)
(0.439989 0 0)
(0.439989 0 0)
(0.439989 0 0)
(0.439989 0 0)
(0.439989 0 0)
(0.439989 0 0)
(0.439989 0 0)
(0.439989 0 0)
(0.439989 0 0)
(0.439989 0 0)
(0.439989 0 0)
(0.439989 0 0)
(0.439989 0 0)
(0.439989 0 0)
(0.439989 0 0)
(0.439989 0 0)
(0.439989 0 0)
(0.439989 0 0)
(0.439989 0 0)
(0.439989 0 0)
(0.439989 0 0)
(0.439989 0 0)
(0.439989 0 0)
(0.439989 0 0)
(0.439989 0 0)
(0.439989 0 0)
(0.439989 0 0)
(0.439989 0 0)
(0.439989 0 0)
(0.439989 0 0)
(0.439989 0 0)
(0.439989 0 0)
(0.439989 0 0)
(0.439989 0 0)
(0.439989 0 0)
(0.439989 0 0)
(0.439989 0 0)
(0.439989 0 0)
(0.439989 0 0)
(0.439989 0 0)
(0.439989 0 0)
(0.439989 0 0)
(0.439989 0 0)
(0.439989 0 0)
(0.439989 0 0)
(0.439989 0 0)
(0.439989 0 0)
(0.439989 0 0)
(0.439989 0 0)
(0.439989 0 0)
(0.439989 0 0)
(0.439989 0 0)
(0.439989 0 0)
(0.439989 0 0)
(0.439989 0 0)
(0.439989 0 0)
(0.439989 0 0)
(0.439989 0 0)
(0.439989 0 0)
(0.439989 0 0)
(0.439989 0 0)
(0.439989 0 0)
(0.439989 0 0)
(0.439989 0 0)
(0.439989 0 0)
(0.439989 0 0)
(0.439989 0 0)
(0.439989 0 0)
(0.439989 0 0)
(0.439989 0 0)
(0.439989 0 0)
(0.439989 0 0)
(0.439989 0 0)
(0.439989 0 0)
(0.439989 0 0)
(0.439989 0 0)
(0.439989 0 0)
(0.439989 0 0)
(0.439989 0 0)
(0.439989 0 0)
(0.439989 0 0)
(0.439989 0 0)
(0.439989 0 0)
(0.439989 0 0)
(0.439989 0 0)
(0.439989 0 0)
(0.439989 0 0)
(0.439989 0 0)
(0.439989 0 0)
(0.439989 0 0)
(0.439989 0 0)
(0.439989 0 0)
(0.439989 0 0)
(0.439989 0 0)
(0.439989 0 0)
(0.439989 0 0)
(0.439989 0 0)
(0.439989 0 0)
(0.439989 0 0)
(0.439989 0 0)
(0.439989 0 0)
(0.439989 0 0)
(0.439989 0 0)
(0.439989 0 0)
(0.439989 0 0)
(0.439989 0 0)
(0.439989 0 0)
(0.439989 0 0)
(0.439989 0 0)
(0.439989 0 0)
(0.439989 0 0)
(0.439989 0 0)
(0.439989 0 0)
(0.439989 0 0)
(0.439989 0 0)
(0.439989 0 0)
(0.439989 0 0)
(0.439989 0 0)
(0.439989 0 0)
(0.439989 0 0)
(0.439989 0 0)
(0.439989 0 0)
(0.439989 0 0)
(0.439989 0 0)
(0.439989 0 0)
(0.439989 0 0)
(0.439989 0 0)
(0.439989 0 0)
)
;

boundaryField
{
    topWall
    {
        type            empty;
    }
    bottomWall
    {
        type            empty;
    }
    leftAndRight_half1
    {
        type            cyclic;
    }
    leftAndRight_half0
    {
        type            cyclic;
    }
    frontAndBack
    {
        type            empty;
    }
}


// ************************************************************************* //
