/*--------------------------------*- C++ -*----------------------------------*\
  =========                 |
  \\      /  F ield         | OpenFOAM: The Open Source CFD Toolbox
   \\    /   O peration     | Website:  https://openfoam.org
    \\  /    A nd           | Version:  9
     \\/     M anipulation  |
\*---------------------------------------------------------------------------*/
FoamFile
{
    format      ascii;
    class       volScalarField;
    location    "0.05";
    object      f_1;
}
// * * * * * * * * * * * * * * * * * * * * * * * * * * * * * * * * * * * * * //

dimensions      [1 -3 0 0 0 0 0];

internalField   nonuniform List<scalar> 
1000
(
168.881
168.881
168.881
168.881
168.881
168.881
168.881
168.881
168.881
168.881
168.881
168.881
168.881
168.881
168.881
168.881
168.881
168.881
168.881
168.881
168.881
168.881
168.881
168.881
168.881
168.881
168.881
168.881
168.881
168.881
168.881
168.881
168.881
168.881
168.881
168.881
168.881
168.881
168.881
168.881
168.881
168.881
168.881
168.881
168.881
168.881
168.881
168.881
168.881
168.881
168.881
168.881
168.881
168.881
168.881
168.881
168.881
168.881
168.881
168.881
168.881
168.881
168.881
168.881
168.881
168.881
168.881
168.881
168.881
168.881
168.881
168.881
168.881
168.881
168.881
168.881
168.881
168.881
168.881
168.881
168.881
168.881
168.881
168.881
168.881
168.881
168.881
168.881
168.881
168.881
168.881
168.881
168.881
168.881
168.881
168.881
168.881
168.881
168.881
168.881
168.881
168.881
168.881
168.881
168.881
168.881
168.881
168.881
168.881
168.881
168.881
168.881
168.881
168.881
168.881
168.881
168.881
168.881
168.881
168.881
168.881
168.881
168.881
168.881
168.881
168.881
168.881
168.881
168.881
168.881
168.881
168.881
168.881
168.881
168.881
168.881
168.881
168.881
168.881
168.881
168.881
168.881
168.881
168.881
168.881
168.881
168.881
168.881
168.881
168.881
168.881
168.881
168.881
168.881
168.881
168.881
168.881
168.881
168.881
168.881
168.881
168.881
168.881
168.881
168.881
168.881
168.881
168.881
168.881
168.881
168.881
168.881
168.881
168.881
168.881
168.881
168.881
168.881
168.881
168.881
168.881
168.881
168.881
168.881
168.881
168.881
168.881
168.881
168.881
168.881
168.881
168.881
168.881
168.881
168.881
168.881
168.881
168.881
168.881
168.881
168.881
168.881
168.881
168.881
168.881
168.881
168.881
168.881
168.881
168.881
168.881
168.881
168.881
168.881
168.881
168.881
168.881
168.881
168.881
168.881
168.881
168.881
168.881
168.881
168.881
168.881
168.881
168.881
168.881
168.881
168.881
168.881
168.881
168.881
168.881
168.881
168.881
168.881
168.881
168.881
168.881
168.881
168.881
168.881
168.881
168.881
168.881
168.881
168.881
168.881
168.881
168.881
168.881
168.881
168.881
168.881
168.881
168.881
168.881
168.881
168.881
168.881
168.881
168.881
168.881
168.881
168.881
168.881
168.881
168.881
168.881
168.881
168.881
168.881
168.881
168.881
168.881
168.881
168.881
168.881
168.881
168.881
168.881
168.881
168.881
168.881
168.881
168.881
168.881
168.881
168.881
168.881
168.881
168.881
168.881
168.881
168.881
168.881
168.881
168.881
168.881
168.881
168.881
168.881
168.882
168.882
168.882
168.882
168.882
168.882
168.882
168.882
168.882
168.882
168.882
168.882
168.882
168.883
168.883
168.883
168.883
168.883
168.884
168.884
168.884
168.884
168.885
168.885
168.886
168.886
168.887
168.887
168.888
168.889
168.889
168.89
168.891
168.892
168.893
168.895
168.896
168.897
168.899
168.901
168.903
168.905
168.907
168.91
168.912
168.915
168.918
168.922
168.926
168.93
168.934
168.939
168.944
168.95
168.956
168.962
168.97
168.977
168.985
168.994
169.004
169.014
169.025
169.037
169.049
169.063
169.077
169.093
169.109
169.127
169.146
169.166
169.187
169.21
169.234
169.26
169.288
169.317
169.348
169.38
169.415
169.452
169.49
169.531
169.575
169.62
169.668
169.719
169.772
169.828
169.887
169.949
170.013
170.081
170.152
170.226
170.304
170.385
170.47
170.559
170.651
170.747
170.847
170.951
171.059
171.171
171.288
171.408
171.534
171.663
171.798
171.936
172.08
172.228
172.381
172.539
172.702
172.869
173.042
173.219
173.402
173.59
173.782
173.98
174.183
174.392
174.605
174.823
175.047
175.276
175.51
175.749
175.993
176.243
176.498
176.757
177.022
177.292
177.567
177.847
178.132
178.422
178.717
179.017
179.322
179.631
179.945
180.264
180.588
180.916
181.248
181.586
181.927
182.273
182.623
182.978
183.336
183.699
184.065
184.436
184.81
185.189
185.571
185.956
186.345
186.738
187.133
187.533
187.935
188.34
188.748
189.159
189.573
189.99
190.409
190.83
191.254
191.68
192.108
192.538
192.97
193.403
193.838
194.275
194.712
195.151
195.59
196.03
196.471
196.912
197.354
197.795
198.236
198.677
199.117
199.556
199.994
200.431
200.866
201.299
201.73
202.158
202.584
203.006
203.425
203.84
204.251
204.657
205.058
205.454
205.843
206.226
206.602
206.97
207.329
207.68
208.021
208.352
208.672
208.981
209.276
209.558
209.825
210.077
210.313
210.53
210.729
210.908
211.066
211.202
211.313
211.399
211.458
211.489
211.489
211.459
211.395
211.296
211.161
210.988
210.775
210.521
210.224
209.884
209.498
209.067
208.588
208.062
207.489
206.869
206.201
205.487
204.728
203.926
203.082
202.2
201.282
200.332
199.352
198.348
197.324
196.283
195.231
194.173
193.112
192.055
191.004
189.965
188.942
187.938
186.957
186.001
185.073
184.175
183.309
182.477
181.678
180.914
180.186
179.492
178.832
178.207
177.616
177.056
176.529
176.031
175.563
175.123
174.71
174.322
173.958
173.617
173.298
172.999
172.719
172.458
172.213
171.985
171.772
171.573
171.387
171.213
171.051
170.9
170.759
170.627
170.504
170.39
170.283
170.183
170.091
170.004
169.924
169.849
169.779
169.714
169.653
169.597
169.544
169.495
169.45
169.407
169.368
169.332
169.298
169.266
169.237
169.21
169.184
169.161
169.139
169.119
169.1
169.083
169.067
169.052
169.039
169.026
169.014
169.003
168.993
168.984
168.976
168.968
168.961
168.954
168.948
168.942
168.937
168.932
168.928
168.924
168.92
168.916
168.913
168.911
168.908
168.905
168.903
168.901
168.899
168.898
168.896
168.895
168.894
168.892
168.891
168.89
168.889
168.889
168.888
168.887
168.887
168.886
168.886
168.885
168.885
168.884
168.884
168.884
168.884
168.883
168.883
168.883
168.883
168.883
168.882
168.882
168.882
168.882
168.882
168.882
168.882
168.882
168.882
168.882
168.882
168.882
168.882
168.881
168.881
168.881
168.881
168.881
168.881
168.881
168.881
168.881
168.881
168.881
168.881
168.881
168.881
168.881
168.881
168.881
168.881
168.881
168.881
168.881
168.881
168.881
168.881
168.881
168.881
168.881
168.881
168.881
168.881
168.881
168.881
168.881
168.881
168.881
168.881
168.881
168.881
168.881
168.881
168.881
168.881
168.881
168.881
168.881
168.881
168.881
168.881
168.881
168.881
168.881
168.881
168.881
168.881
168.881
168.881
168.881
168.881
168.881
168.881
168.881
168.881
168.881
168.881
168.881
168.881
168.881
168.881
168.881
168.881
168.881
168.881
168.881
168.881
168.881
168.881
168.881
168.881
168.881
168.881
168.881
168.881
168.881
168.881
168.881
168.881
168.881
168.881
168.881
168.881
168.881
168.881
168.881
168.881
168.881
168.881
168.881
168.881
168.881
168.881
168.881
168.881
168.881
168.881
168.881
168.881
168.881
168.881
168.881
168.881
168.881
168.881
168.881
168.881
168.881
168.881
168.881
168.881
168.881
168.881
168.881
168.881
168.881
168.881
168.881
168.881
168.881
168.881
168.881
168.881
168.881
168.881
168.881
168.881
168.881
168.881
168.881
168.881
168.881
168.881
168.881
168.881
168.881
168.881
168.881
168.881
168.881
168.881
168.881
168.881
168.881
168.881
168.881
168.881
168.881
168.881
168.881
168.881
168.881
168.881
168.881
168.881
168.881
168.881
168.881
168.881
168.881
168.881
168.881
168.881
168.881
168.881
168.881
168.881
168.881
168.881
168.881
168.881
168.881
168.881
168.881
168.881
168.881
168.881
168.881
168.881
168.881
168.881
168.881
168.881
168.881
168.881
168.881
168.881
168.881
168.881
168.881
168.881
168.881
168.881
168.881
168.881
168.881
168.881
168.881
168.881
168.881
168.881
168.881
168.881
168.881
168.881
168.881
168.881
168.881
168.881
168.881
168.881
168.881
168.881
168.881
168.881
168.881
168.881
168.881
168.881
168.881
168.881
168.881
168.881
168.881
168.881
168.881
168.881
168.881
168.881
168.881
168.881
168.881
168.881
168.881
168.881
168.881
168.881
168.881
168.881
168.881
168.881
168.881
168.881
168.881
168.881
168.881
168.881
168.881
168.881
168.881
168.881
168.881
168.881
168.881
168.881
168.881
168.881
168.881
168.881
168.881
168.881
168.881
168.881
168.881
168.881
168.881
168.881
168.881
168.881
168.881
168.881
168.881
168.881
168.881
168.881
168.881
168.881
168.881
168.881
168.881
168.881
168.881
168.881
168.881
168.881
168.881
168.881
168.881
168.881
168.881
)
;

boundaryField
{
    topWall
    {
        type            empty;
    }
    bottomWall
    {
        type            empty;
    }
    leftAndRight_half1
    {
        type            cyclic;
    }
    leftAndRight_half0
    {
        type            cyclic;
    }
    frontAndBack
    {
        type            empty;
    }
}


// ************************************************************************* //
