/*--------------------------------*- C++ -*----------------------------------*\
  =========                 |
  \\      /  F ield         | OpenFOAM: The Open Source CFD Toolbox
   \\    /   O peration     | Website:  https://openfoam.org
    \\  /    A nd           | Version:  9
     \\/     M anipulation  |
\*---------------------------------------------------------------------------*/
FoamFile
{
    format      ascii;
    class       volScalarField;
    location    "0.05";
    object      p;
}
// * * * * * * * * * * * * * * * * * * * * * * * * * * * * * * * * * * * * * //

dimensions      [1 -1 -2 0 0 0 0];

internalField   nonuniform List<scalar> 
1000
(
100097
100097
100097
100097
100097
100097
100097
100097
100097
100097
100097
100097
100097
100097
100097
100097
100097
100097
100097
100097
100097
100097
100097
100097
100097
100097
100097
100097
100097
100097
100097
100097
100097
100097
100097
100097
100097
100097
100097
100097
100097
100097
100097
100097
100097
100097
100097
100097
100097
100097
100097
100097
100097
100097
100097
100097
100097
100097
100097
100097
100097
100097
100097
100097
100097
100097
100097
100097
100097
100097
100097
100097
100097
100097
100097
100097
100097
100097
100097
100097
100097
100097
100097
100097
100097
100097
100097
100097
100097
100097
100097
100097
100097
100097
100097
100097
100097
100097
100097
100097
100097
100097
100097
100097
100097
100097
100097
100097
100097
100097
100097
100097
100097
100097
100097
100097
100097
100097
100097
100097
100097
100097
100097
100097
100097
100097
100097
100097
100097
100097
100097
100097
100097
100097
100097
100097
100097
100097
100097
100097
100097
100097
100097
100097
100097
100097
100097
100097
100097
100097
100097
100097
100097
100097
100097
100097
100097
100097
100097
100097
100097
100097
100097
100097
100097
100097
100097
100097
100097
100097
100097
100097
100097
100097
100097
100097
100097
100097
100097
100097
100097
100097
100097
100097
100097
100097
100097
100097
100097
100097
100097
100097
100097
100097
100097
100097
100097
100097
100097
100097
100097
100097
100097
100097
100097
100097
100097
100097
100097
100097
100097
100097
100097
100097
100097
100097
100097
100097
100097
100097
100097
100097
100097
100097
100097
100097
100097
100097
100097
100097
100097
100097
100097
100097
100097
100097
100097
100097
100097
100097
100097
100097
100097
100097
100097
100097
100097
100097
100097
100097
100097
100097
100097
100097
100097
100097
100097
100097
100097
100097
100097
100097
100097
100097
100097
100097
100097
100097
100097
100097
100097
100097
100097
100097
100097
100097
100097
100097
100097
100097
100097
100097
100097
100097
100097
100097
100097
100097
100097
100097
100097
100097
100097
100097
100097
100097
100097
100097
100096
100096
100096
100096
100096
100096
100096
100096
100096
100096
100096
100096
100096
100095
100095
100095
100095
100095
100095
100094
100094
100094
100093
100093
100093
100092
100092
100091
100091
100090
100089
100089
100088
100087
100086
100085
100084
100083
100081
100080
100078
100076
100074
100072
100070
100068
100065
100062
100059
100056
100053
100049
100045
100040
100036
100031
100025
100019
100013
100007
99999.6
99992.1
99984.1
99975.5
99966.5
99956.8
99946.5
99935.7
99924.1
99911.9
99899
99885.4
99871
99855.8
99839.9
99823.1
99805.4
99786.9
99767.5
99747.2
99725.9
99703.7
99680.5
99656.3
99631.2
99605
99577.9
99549.7
99520.5
99490.4
99459.2
99427.1
99394
99359.9
99325
99289.1
99252.4
99214.8
99176.5
99137.4
99097.6
99057.2
99016.3
98974.8
98933
98890.7
98848.2
98805.6
98762.8
98720.1
98677.5
98635.2
98593.2
98551.6
98510.6
98470.4
98431
98392.6
98355.3
98319.3
98284.8
98251.7
98220.5
98191.1
98163.7
98138.5
98115.7
98095.5
98077.9
98063.2
98051.5
98043.1
98038
98036.4
98038.6
98044.6
98054.7
98069.1
98087.8
98111.1
98139.1
98171.9
98209.9
98253
98301.5
98355.5
98415.2
98480.7
98552.2
98629.7
98713.6
98803.8
98900.5
99003.9
99114
99231.1
99355.1
99486.3
99624.7
99770.5
99923.7
100084
100253
100429
100613
100805
101004
101212
101428
101652
101884
102124
102373
102630
102896
103169
103451
103742
104041
104348
104664
104988
105320
105661
106010
106368
106733
107107
107489
107878
108276
108682
109095
109516
109944
110380
110823
111273
111730
112194
112665
113141
113624
114113
114608
115108
115613
116123
116638
117157
117680
118207
118736
119269
119804
120341
120880
121419
121959
122499
123039
123577
124114
124647
125178
125705
126227
126743
127254
127756
128251
128736
129211
129674
130125
130562
130984
131389
131776
132144
132490
132814
133114
133388
133633
133849
134032
134182
134296
134371
134407
134400
134350
134253
134108
133913
133668
133370
133019
132614
132156
131644
131079
130463
129797
129085
128328
127531
126698
125833
124940
124026
123094
122152
121203
120254
119308
118372
117450
116545
115661
114801
113968
113164
112392
111651
110942
110267
109626
109018
108442
107899
107386
106904
106451
106026
105627
105254
104905
104579
104274
103989
103723
103475
103244
103028
102827
102640
102465
102302
102150
102009
101877
101754
101640
101533
101434
101341
101255
101174
101099
101029
100963
100903
100846
100793
100744
100698
100655
100615
100577
100543
100510
100480
100452
100426
100402
100379
100358
100339
100321
100304
100288
100273
100260
100247
100235
100225
100215
100205
100197
100189
100181
100175
100168
100162
100157
100152
100147
100143
100139
100136
100132
100129
100127
100124
100122
100119
100117
100116
100114
100112
100111
100110
100108
100107
100106
100106
100105
100104
100103
100103
100102
100102
100101
100101
100100
100100
100100
100099
100099
100099
100099
100098
100098
100098
100098
100098
100098
100098
100098
100097
100097
100097
100097
100097
100097
100097
100097
100097
100097
100097
100097
100097
100097
100097
100097
100097
100097
100097
100097
100097
100097
100097
100097
100097
100097
100097
100097
100097
100097
100097
100097
100097
100097
100097
100097
100097
100097
100097
100097
100097
100097
100097
100097
100097
100097
100097
100097
100097
100097
100097
100097
100097
100097
100097
100097
100097
100097
100097
100097
100097
100097
100097
100097
100097
100097
100097
100097
100097
100097
100097
100097
100097
100097
100097
100097
100097
100097
100097
100097
100097
100097
100097
100097
100097
100097
100097
100097
100097
100097
100097
100097
100097
100097
100097
100097
100097
100097
100097
100097
100097
100097
100097
100097
100097
100097
100097
100097
100097
100097
100097
100097
100097
100097
100097
100097
100097
100097
100097
100097
100097
100097
100097
100097
100097
100097
100097
100097
100097
100097
100097
100097
100097
100097
100097
100097
100097
100097
100097
100097
100097
100097
100097
100097
100097
100097
100097
100097
100097
100097
100097
100097
100097
100097
100097
100097
100097
100097
100097
100097
100097
100097
100097
100097
100097
100097
100097
100097
100097
100097
100097
100097
100097
100097
100097
100097
100097
100097
100097
100097
100097
100097
100097
100097
100097
100097
100097
100097
100097
100097
100097
100097
100097
100097
100097
100097
100097
100097
100097
100097
100097
100097
100097
100097
100097
100097
100097
100097
100097
100097
100097
100097
100097
100097
100097
100097
100097
100097
100097
100097
100097
100097
100097
100097
100097
100097
100097
100097
100097
100097
100097
100097
100097
100097
100097
100097
100097
100097
100097
100097
100097
100097
100097
100097
100097
100097
100097
100097
100097
100097
100097
100097
100097
100097
100097
100097
100097
100097
100097
100097
100097
100097
100097
100097
100097
100097
100097
100097
100097
100097
100097
100097
100097
100097
100097
100097
100097
100097
100097
100097
100097
100097
100097
100097
100097
100097
100097
100097
100097
100097
100097
100097
100097
100097
100097
100097
100097
100097
100097
100097
100097
)
;

boundaryField
{
    topWall
    {
        type            empty;
    }
    bottomWall
    {
        type            empty;
    }
    leftAndRight_half1
    {
        type            cyclic;
    }
    leftAndRight_half0
    {
        type            cyclic;
    }
    frontAndBack
    {
        type            empty;
    }
}


// ************************************************************************* //
