/*--------------------------------*- C++ -*----------------------------------*\
  =========                 |
  \\      /  F ield         | OpenFOAM: The Open Source CFD Toolbox
   \\    /   O peration     | Website:  https://openfoam.org
    \\  /    A nd           | Version:  9
     \\/     M anipulation  |
\*---------------------------------------------------------------------------*/
FoamFile
{
    format      ascii;
    class       volVectorField;
    location    "0.05";
    object      U;
}
// * * * * * * * * * * * * * * * * * * * * * * * * * * * * * * * * * * * * * //

dimensions      [0 1 -1 0 0 0 0];

internalField   nonuniform List<vector> 
1000
(
(0.439989 0 0)
(0.439989 0 0)
(0.439989 0 0)
(0.439989 0 0)
(0.439989 0 0)
(0.439989 0 0)
(0.439989 0 0)
(0.439989 0 0)
(0.439989 0 0)
(0.439989 0 0)
(0.439989 0 0)
(0.439989 0 0)
(0.439989 0 0)
(0.439989 0 0)
(0.439989 0 0)
(0.439989 0 0)
(0.439989 0 0)
(0.439989 0 0)
(0.439989 0 0)
(0.439989 0 0)
(0.439989 0 0)
(0.439989 0 0)
(0.439989 0 0)
(0.439989 0 0)
(0.439989 0 0)
(0.439989 0 0)
(0.439989 0 0)
(0.439989 0 0)
(0.439989 0 0)
(0.439989 0 0)
(0.439989 0 0)
(0.439989 0 0)
(0.439989 0 0)
(0.439989 0 0)
(0.439989 0 0)
(0.439989 0 0)
(0.439989 0 0)
(0.439989 0 0)
(0.439989 0 0)
(0.439989 0 0)
(0.439989 0 0)
(0.439989 0 0)
(0.439989 0 0)
(0.439989 0 0)
(0.439989 0 0)
(0.439989 0 0)
(0.439989 0 0)
(0.439989 0 0)
(0.439989 0 0)
(0.439989 0 0)
(0.439989 0 0)
(0.439989 0 0)
(0.439989 0 0)
(0.439989 0 0)
(0.439989 0 0)
(0.439989 0 0)
(0.439989 0 0)
(0.439989 0 0)
(0.439989 0 0)
(0.439989 0 0)
(0.439989 0 0)
(0.439989 0 0)
(0.439989 0 0)
(0.439989 0 0)
(0.439989 0 0)
(0.439989 0 0)
(0.439989 0 0)
(0.439989 0 0)
(0.439989 0 0)
(0.439989 0 0)
(0.439989 0 0)
(0.439989 0 0)
(0.439989 0 0)
(0.439989 0 0)
(0.439989 0 0)
(0.439989 0 0)
(0.439989 0 0)
(0.439989 0 0)
(0.439989 0 0)
(0.439989 0 0)
(0.439989 0 0)
(0.439989 0 0)
(0.439989 0 0)
(0.439989 0 0)
(0.439989 0 0)
(0.439989 0 0)
(0.439989 0 0)
(0.439989 0 0)
(0.439989 0 0)
(0.439989 0 0)
(0.439989 0 0)
(0.439989 0 0)
(0.439989 0 0)
(0.439989 0 0)
(0.439989 0 0)
(0.439989 0 0)
(0.439989 0 0)
(0.439989 0 0)
(0.439989 0 0)
(0.439989 0 0)
(0.439989 0 0)
(0.439989 0 0)
(0.439989 0 0)
(0.439989 0 0)
(0.439989 0 0)
(0.439989 0 0)
(0.439989 0 0)
(0.439989 0 0)
(0.439989 0 0)
(0.439989 0 0)
(0.439989 0 0)
(0.439989 0 0)
(0.439989 0 0)
(0.439989 0 0)
(0.439989 0 0)
(0.439989 0 0)
(0.439989 0 0)
(0.439989 0 0)
(0.439989 0 0)
(0.439989 0 0)
(0.439989 0 0)
(0.439989 0 0)
(0.439989 0 0)
(0.439989 0 0)
(0.439989 0 0)
(0.439989 0 0)
(0.439989 0 0)
(0.439989 0 0)
(0.439989 0 0)
(0.439989 0 0)
(0.439989 0 0)
(0.439989 0 0)
(0.439989 0 0)
(0.439989 0 0)
(0.439989 0 0)
(0.439989 0 0)
(0.439989 0 0)
(0.439989 0 0)
(0.439989 0 0)
(0.439989 0 0)
(0.439989 0 0)
(0.439989 0 0)
(0.439989 0 0)
(0.439989 0 0)
(0.439989 0 0)
(0.439989 0 0)
(0.439989 0 0)
(0.439989 0 0)
(0.439989 0 0)
(0.439989 0 0)
(0.439989 0 0)
(0.439989 0 0)
(0.439989 0 0)
(0.439989 0 0)
(0.439989 0 0)
(0.439989 0 0)
(0.439989 0 0)
(0.439989 0 0)
(0.439989 0 0)
(0.439989 0 0)
(0.439989 0 0)
(0.439989 0 0)
(0.439989 0 0)
(0.439989 0 0)
(0.439989 0 0)
(0.439989 0 0)
(0.439989 0 0)
(0.439989 0 0)
(0.439989 0 0)
(0.439989 0 0)
(0.439989 0 0)
(0.439989 0 0)
(0.439989 0 0)
(0.439989 0 0)
(0.439989 0 0)
(0.439989 0 0)
(0.439989 0 0)
(0.439989 0 0)
(0.439989 0 0)
(0.439989 0 0)
(0.439989 0 0)
(0.439989 0 0)
(0.439989 0 0)
(0.439989 0 0)
(0.439989 0 0)
(0.439989 0 0)
(0.439989 0 0)
(0.439989 0 0)
(0.439989 0 0)
(0.439989 0 0)
(0.439989 0 0)
(0.439989 0 0)
(0.439989 0 0)
(0.439989 0 0)
(0.439989 0 0)
(0.439989 0 0)
(0.439989 0 0)
(0.439989 0 0)
(0.439989 0 0)
(0.439989 0 0)
(0.439989 0 0)
(0.439989 0 0)
(0.439989 0 0)
(0.439989 0 0)
(0.439989 0 0)
(0.439989 0 0)
(0.439989 0 0)
(0.439989 0 0)
(0.439989 0 0)
(0.439989 0 0)
(0.439989 0 0)
(0.439989 0 0)
(0.439989 0 0)
(0.439989 0 0)
(0.439989 0 0)
(0.439989 0 0)
(0.439989 0 0)
(0.439989 0 0)
(0.439989 0 0)
(0.439989 0 0)
(0.439989 0 0)
(0.439989 0 0)
(0.439989 0 0)
(0.439989 0 0)
(0.439989 0 0)
(0.439989 0 0)
(0.439989 0 0)
(0.439989 0 0)
(0.439989 0 0)
(0.439989 0 0)
(0.439989 0 0)
(0.439989 0 0)
(0.439989 0 0)
(0.439989 0 0)
(0.439989 0 0)
(0.439989 0 0)
(0.439989 0 0)
(0.439989 0 0)
(0.439989 0 0)
(0.439989 0 0)
(0.439989 0 0)
(0.439989 0 0)
(0.439989 0 0)
(0.439989 0 0)
(0.439989 0 0)
(0.439989 0 0)
(0.439989 0 0)
(0.439989 0 0)
(0.439989 0 0)
(0.439989 0 0)
(0.439989 0 0)
(0.439989 0 0)
(0.439989 0 0)
(0.439989 0 0)
(0.439989 0 0)
(0.439989 0 0)
(0.439989 0 0)
(0.439989 0 0)
(0.439989 0 0)
(0.439989 0 0)
(0.439989 0 0)
(0.439989 0 0)
(0.439989 0 0)
(0.439989 0 0)
(0.439989 0 0)
(0.439989 0 0)
(0.439989 0 0)
(0.43999 0 0)
(0.43999 0 0)
(0.43999 0 0)
(0.43999 0 0)
(0.43999 0 0)
(0.43999 0 0)
(0.43999 0 0)
(0.439991 0 0)
(0.439991 0 0)
(0.439991 0 0)
(0.439991 0 0)
(0.439992 0 0)
(0.439992 0 0)
(0.439993 0 0)
(0.439993 0 0)
(0.439994 0 0)
(0.439994 0 0)
(0.439995 0 0)
(0.439996 0 0)
(0.439997 0 0)
(0.439998 0 0)
(0.439999 0 0)
(0.440001 0 0)
(0.440002 0 0)
(0.440004 0 0)
(0.440006 0 0)
(0.440008 0 0)
(0.440011 0 0)
(0.440013 0 0)
(0.440017 0 0)
(0.44002 0 0)
(0.440024 0 0)
(0.440029 0 0)
(0.440034 0 0)
(0.44004 0 0)
(0.440046 0 0)
(0.440053 0 0)
(0.440061 0 0)
(0.44007 0 0)
(0.44008 0 0)
(0.440091 0 0)
(0.440104 0 0)
(0.440118 0 0)
(0.440133 0 0)
(0.440151 0 0)
(0.44017 0 0)
(0.440192 0 0)
(0.440215 0 0)
(0.440242 0 0)
(0.440271 0 0)
(0.440304 0 0)
(0.44034 0 0)
(0.440381 0 0)
(0.440425 0 0)
(0.440475 0 0)
(0.440529 0 0)
(0.44059 0 0)
(0.440656 0 0)
(0.44073 0 0)
(0.440811 0 0)
(0.440901 0 0)
(0.441 0 0)
(0.441108 0 0)
(0.441228 0 0)
(0.44136 0 0)
(0.441505 0 0)
(0.441663 0 0)
(0.441838 0 0)
(0.442029 0 0)
(0.442239 0 0)
(0.442469 0 0)
(0.442721 0 0)
(0.442996 0 0)
(0.443297 0 0)
(0.443625 0 0)
(0.443984 0 0)
(0.444376 0 0)
(0.444803 0 0)
(0.445267 0 0)
(0.445774 0 0)
(0.446324 0 0)
(0.446923 0 0)
(0.447573 0 0)
(0.448279 0 0)
(0.449044 0 0)
(0.449874 0 0)
(0.450773 0 0)
(0.451746 0 0)
(0.452799 0 0)
(0.453936 0 0)
(0.455165 0 0)
(0.456491 0 0)
(0.457921 0 0)
(0.459462 0 0)
(0.461121 0 0)
(0.462906 0 0)
(0.464826 0 0)
(0.466888 0 0)
(0.469102 0 0)
(0.471477 0 0)
(0.474022 0 0)
(0.476749 0 0)
(0.479667 0 0)
(0.482787 0 0)
(0.486121 0 0)
(0.489681 0 0)
(0.493479 0 0)
(0.497528 0 0)
(0.501841 0 0)
(0.506431 0 0)
(0.511312 0 0)
(0.516499 0 0)
(0.522006 0 0)
(0.527849 0 0)
(0.534043 0 0)
(0.540603 0 0)
(0.547547 0 0)
(0.554889 0 0)
(0.562648 0 0)
(0.570839 0 0)
(0.57948 0 0)
(0.588588 0 0)
(0.598182 0 0)
(0.608277 0 0)
(0.618893 0 0)
(0.630047 0 0)
(0.641757 0 0)
(0.654041 0 0)
(0.666916 0 0)
(0.6804 0 0)
(0.694512 0 0)
(0.709268 0 0)
(0.724685 0 0)
(0.740781 0 0)
(0.757573 0 0)
(0.775077 0 0)
(0.793309 0 0)
(0.812284 0 0)
(0.832019 0 0)
(0.852527 0 0)
(0.873825 0 0)
(0.895924 0 0)
(0.918839 0 0)
(0.942582 0 0)
(0.967166 0 0)
(0.992601 0 0)
(1.0189 0 0)
(1.04607 0 0)
(1.07412 0 0)
(1.10307 0 0)
(1.13291 0 0)
(1.16366 0 0)
(1.19532 0 0)
(1.2279 0 0)
(1.26141 0 0)
(1.29584 0 0)
(1.3312 0 0)
(1.3675 0 0)
(1.40473 0 0)
(1.4429 0 0)
(1.482 0 0)
(1.52204 0 0)
(1.56302 0 0)
(1.60493 0 0)
(1.64777 0 0)
(1.69153 0 0)
(1.73622 0 0)
(1.78183 0 0)
(1.82834 0 0)
(1.87577 0 0)
(1.92409 0 0)
(1.97331 0 0)
(2.0234 0 0)
(2.07438 0 0)
(2.12622 0 0)
(2.17891 0 0)
(2.23245 0 0)
(2.28683 0 0)
(2.34203 0 0)
(2.39804 0 0)
(2.45485 0 0)
(2.51245 0 0)
(2.57082 0 0)
(2.62995 0 0)
(2.68983 0 0)
(2.75044 0 0)
(2.81177 0 0)
(2.8738 0 0)
(2.93652 0 0)
(2.9999 0 0)
(3.06395 0 0)
(3.12863 0 0)
(3.19393 0 0)
(3.25984 0 0)
(3.32634 0 0)
(3.39341 0 0)
(3.46103 0 0)
(3.52919 0 0)
(3.59787 0 0)
(3.66704 0 0)
(3.73669 0 0)
(3.8068 0 0)
(3.87736 0 0)
(3.94833 0 0)
(4.01971 0 0)
(4.09147 0 0)
(4.16359 0 0)
(4.23605 0 0)
(4.30882 0 0)
(4.3819 0 0)
(4.45525 0 0)
(4.52885 0 0)
(4.60268 0 0)
(4.67673 0 0)
(4.75095 0 0)
(4.82534 0 0)
(4.89986 0 0)
(4.97449 0 0)
(5.0492 0 0)
(5.12398 0 0)
(5.19878 0 0)
(5.27359 0 0)
(5.34838 0 0)
(5.42312 0 0)
(5.49777 0 0)
(5.57231 0 0)
(5.6467 0 0)
(5.72092 0 0)
(5.79493 0 0)
(5.86869 0 0)
(5.94217 0 0)
(6.01534 0 0)
(6.08814 0 0)
(6.16055 0 0)
(6.23251 0 0)
(6.304 0 0)
(6.37495 0 0)
(6.44533 0 0)
(6.51509 0 0)
(6.58417 0 0)
(6.65251 0 0)
(6.72007 0 0)
(6.78678 0 0)
(6.85258 0 0)
(6.91741 0 0)
(6.98119 0 0)
(7.04385 0 0)
(7.10532 0 0)
(7.16551 0 0)
(7.22434 0 0)
(7.28172 0 0)
(7.33755 0 0)
(7.39174 0 0)
(7.44418 0 0)
(7.49474 0 0)
(7.54333 0 0)
(7.5898 0 0)
(7.63403 0 0)
(7.67588 0 0)
(7.71519 0 0)
(7.75181 0 0)
(7.78558 0 0)
(7.81632 0 0)
(7.84385 0 0)
(7.86797 0 0)
(7.88849 0 0)
(7.90518 0 0)
(7.91784 0 0)
(7.92622 0 0)
(7.9301 0 0)
(7.92922 0 0)
(7.92333 0 0)
(7.91218 0 0)
(7.8955 0 0)
(7.87302 0 0)
(7.84448 0 0)
(7.80963 0 0)
(7.76819 0 0)
(7.71992 0 0)
(7.6646 0 0)
(7.60201 0 0)
(7.53194 0 0)
(7.45426 0 0)
(7.36881 0 0)
(7.27552 0 0)
(7.17435 0 0)
(7.0653 0 0)
(6.94845 0 0)
(6.82391 0 0)
(6.6919 0 0)
(6.55266 0 0)
(6.40655 0 0)
(6.25396 0 0)
(6.09538 0 0)
(5.93134 0 0)
(5.76246 0 0)
(5.58939 0 0)
(5.41285 0 0)
(5.23358 0 0)
(5.05234 0 0)
(4.86993 0 0)
(4.68713 0 0)
(4.50473 0 0)
(4.32346 0 0)
(4.14406 0 0)
(3.9672 0 0)
(3.79352 0 0)
(3.62358 0 0)
(3.45788 0 0)
(3.29687 0 0)
(3.14092 0 0)
(2.99033 0 0)
(2.84534 0 0)
(2.70612 0 0)
(2.57278 0 0)
(2.44538 0 0)
(2.32393 0 0)
(2.2084 0 0)
(2.09869 0 0)
(1.99472 0 0)
(1.89632 0 0)
(1.80335 0 0)
(1.71562 0 0)
(1.63295 0 0)
(1.55512 0 0)
(1.48193 0 0)
(1.41316 0 0)
(1.3486 0 0)
(1.28803 0 0)
(1.23126 0 0)
(1.17806 0 0)
(1.12824 0 0)
(1.08162 0 0)
(1.03799 0 0)
(0.997192 0 0)
(0.959047 0 0)
(0.923396 0 0)
(0.890085 0 0)
(0.858968 0 0)
(0.829908 0 0)
(0.802775 0 0)
(0.777446 0 0)
(0.753807 0 0)
(0.731749 0 0)
(0.71117 0 0)
(0.691974 0 0)
(0.674073 0 0)
(0.657383 0 0)
(0.641824 0 0)
(0.627322 0 0)
(0.61381 0 0)
(0.601222 0 0)
(0.589497 0 0)
(0.578579 0 0)
(0.568415 0 0)
(0.558955 0 0)
(0.550153 0 0)
(0.541966 0 0)
(0.534351 0 0)
(0.527273 0 0)
(0.520694 0 0)
(0.514582 0 0)
(0.508905 0 0)
(0.503634 0 0)
(0.498742 0 0)
(0.494204 0 0)
(0.489994 0 0)
(0.486091 0 0)
(0.482474 0 0)
(0.479123 0 0)
(0.476021 0 0)
(0.473149 0 0)
(0.470491 0 0)
(0.468034 0 0)
(0.465762 0 0)
(0.463663 0 0)
(0.461724 0 0)
(0.459934 0 0)
(0.458283 0 0)
(0.45676 0 0)
(0.455356 0 0)
(0.454062 0 0)
(0.452871 0 0)
(0.451774 0 0)
(0.450765 0 0)
(0.449837 0 0)
(0.448985 0 0)
(0.448202 0 0)
(0.447483 0 0)
(0.446823 0 0)
(0.446218 0 0)
(0.445664 0 0)
(0.445156 0 0)
(0.444691 0 0)
(0.444265 0 0)
(0.443876 0 0)
(0.44352 0 0)
(0.443195 0 0)
(0.442899 0 0)
(0.442628 0 0)
(0.442381 0 0)
(0.442156 0 0)
(0.441951 0 0)
(0.441764 0 0)
(0.441595 0 0)
(0.44144 0 0)
(0.4413 0 0)
(0.441173 0 0)
(0.441057 0 0)
(0.440952 0 0)
(0.440857 0 0)
(0.440771 0 0)
(0.440693 0 0)
(0.440622 0 0)
(0.440558 0 0)
(0.440501 0 0)
(0.440448 0 0)
(0.440401 0 0)
(0.440359 0 0)
(0.440321 0 0)
(0.440286 0 0)
(0.440255 0 0)
(0.440227 0 0)
(0.440202 0 0)
(0.440179 0 0)
(0.440159 0 0)
(0.440141 0 0)
(0.440124 0 0)
(0.44011 0 0)
(0.440097 0 0)
(0.440085 0 0)
(0.440074 0 0)
(0.440065 0 0)
(0.440056 0 0)
(0.440049 0 0)
(0.440042 0 0)
(0.440036 0 0)
(0.440031 0 0)
(0.440026 0 0)
(0.440022 0 0)
(0.440018 0 0)
(0.440015 0 0)
(0.440012 0 0)
(0.440009 0 0)
(0.440007 0 0)
(0.440005 0 0)
(0.440003 0 0)
(0.440001 0 0)
(0.44 0 0)
(0.439998 0 0)
(0.439997 0 0)
(0.439996 0 0)
(0.439995 0 0)
(0.439995 0 0)
(0.439994 0 0)
(0.439993 0 0)
(0.439993 0 0)
(0.439992 0 0)
(0.439992 0 0)
(0.439991 0 0)
(0.439991 0 0)
(0.439991 0 0)
(0.439991 0 0)
(0.43999 0 0)
(0.43999 0 0)
(0.43999 0 0)
(0.43999 0 0)
(0.43999 0 0)
(0.43999 0 0)
(0.43999 0 0)
(0.439989 0 0)
(0.439989 0 0)
(0.439989 0 0)
(0.439989 0 0)
(0.439989 0 0)
(0.439989 0 0)
(0.439989 0 0)
(0.439989 0 0)
(0.439989 0 0)
(0.439989 0 0)
(0.439989 0 0)
(0.439989 0 0)
(0.439989 0 0)
(0.439989 0 0)
(0.439989 0 0)
(0.439989 0 0)
(0.439989 0 0)
(0.439989 0 0)
(0.439989 0 0)
(0.439989 0 0)
(0.439989 0 0)
(0.439989 0 0)
(0.439989 0 0)
(0.439989 0 0)
(0.439989 0 0)
(0.439989 0 0)
(0.439989 0 0)
(0.439989 0 0)
(0.439989 0 0)
(0.439989 0 0)
(0.439989 0 0)
(0.439989 0 0)
(0.439989 0 0)
(0.439989 0 0)
(0.439989 0 0)
(0.439989 0 0)
(0.439989 0 0)
(0.439989 0 0)
(0.439989 0 0)
(0.439989 0 0)
(0.439989 0 0)
(0.439989 0 0)
(0.439989 0 0)
(0.439989 0 0)
(0.439989 0 0)
(0.439989 0 0)
(0.439989 0 0)
(0.439989 0 0)
(0.439989 0 0)
(0.439989 0 0)
(0.439989 0 0)
(0.439989 0 0)
(0.439989 0 0)
(0.439989 0 0)
(0.439989 0 0)
(0.439989 0 0)
(0.439989 0 0)
(0.439989 0 0)
(0.439989 0 0)
(0.439989 0 0)
(0.439989 0 0)
(0.439989 0 0)
(0.439989 0 0)
(0.439989 0 0)
(0.439989 0 0)
(0.439989 0 0)
(0.439989 0 0)
(0.439989 0 0)
(0.439989 0 0)
(0.439989 0 0)
(0.439989 0 0)
(0.439989 0 0)
(0.439989 0 0)
(0.439989 0 0)
(0.439989 0 0)
(0.439989 0 0)
(0.439989 0 0)
(0.439989 0 0)
(0.439989 0 0)
(0.439989 0 0)
(0.439989 0 0)
(0.439989 0 0)
(0.439989 0 0)
(0.439989 0 0)
(0.439989 0 0)
(0.439989 0 0)
(0.439989 0 0)
(0.439989 0 0)
(0.439989 0 0)
(0.439989 0 0)
(0.439989 0 0)
(0.439989 0 0)
(0.439989 0 0)
(0.439989 0 0)
(0.439989 0 0)
(0.439989 0 0)
(0.439989 0 0)
(0.439989 0 0)
(0.439989 0 0)
(0.439989 0 0)
(0.439989 0 0)
(0.439989 0 0)
(0.439989 0 0)
(0.439989 0 0)
(0.439989 0 0)
(0.439989 0 0)
(0.439989 0 0)
(0.439989 0 0)
(0.439989 0 0)
(0.439989 0 0)
(0.439989 0 0)
(0.439989 0 0)
(0.439989 0 0)
(0.439989 0 0)
(0.439989 0 0)
(0.439989 0 0)
(0.439989 0 0)
(0.439989 0 0)
(0.439989 0 0)
(0.439989 0 0)
(0.439989 0 0)
(0.439989 0 0)
(0.439989 0 0)
(0.439989 0 0)
(0.439989 0 0)
(0.439989 0 0)
(0.439989 0 0)
(0.439989 0 0)
(0.439989 0 0)
(0.439989 0 0)
(0.439989 0 0)
(0.439989 0 0)
(0.439989 0 0)
(0.439989 0 0)
(0.439989 0 0)
(0.439989 0 0)
(0.439989 0 0)
(0.439989 0 0)
(0.439989 0 0)
(0.439989 0 0)
(0.439989 0 0)
(0.439989 0 0)
(0.439989 0 0)
(0.439989 0 0)
(0.439989 0 0)
(0.439989 0 0)
(0.439989 0 0)
(0.439989 0 0)
(0.439989 0 0)
(0.439989 0 0)
(0.439989 0 0)
(0.439989 0 0)
(0.439989 0 0)
(0.439989 0 0)
(0.439989 0 0)
(0.439989 0 0)
(0.439989 0 0)
(0.439989 0 0)
(0.439989 0 0)
(0.439989 0 0)
(0.439989 0 0)
(0.439989 0 0)
(0.439989 0 0)
(0.439989 0 0)
(0.439989 0 0)
(0.439989 0 0)
(0.439989 0 0)
(0.439989 0 0)
(0.439989 0 0)
(0.439989 0 0)
(0.439989 0 0)
(0.439989 0 0)
(0.439989 0 0)
(0.439989 0 0)
(0.439989 0 0)
(0.439989 0 0)
(0.439989 0 0)
(0.439989 0 0)
(0.439989 0 0)
(0.439989 0 0)
(0.439989 0 0)
(0.439989 0 0)
(0.439989 0 0)
(0.439989 0 0)
(0.439989 0 0)
(0.439989 0 0)
(0.439989 0 0)
(0.439989 0 0)
(0.439989 0 0)
(0.439989 0 0)
(0.439989 0 0)
(0.439989 0 0)
(0.439989 0 0)
(0.439989 0 0)
(0.439989 0 0)
(0.439989 0 0)
(0.439989 0 0)
(0.439989 0 0)
(0.439989 0 0)
(0.439989 0 0)
(0.439989 0 0)
(0.439989 0 0)
(0.439989 0 0)
(0.439989 0 0)
(0.439989 0 0)
(0.439989 0 0)
(0.439989 0 0)
(0.439989 0 0)
(0.439989 0 0)
(0.439989 0 0)
(0.439989 0 0)
(0.439989 0 0)
(0.439989 0 0)
(0.439989 0 0)
(0.439989 0 0)
(0.439989 0 0)
(0.439989 0 0)
(0.439989 0 0)
(0.439989 0 0)
(0.439989 0 0)
(0.439989 0 0)
(0.439989 0 0)
(0.439989 0 0)
(0.439989 0 0)
(0.439989 0 0)
(0.439989 0 0)
(0.439989 0 0)
(0.439989 0 0)
(0.439989 0 0)
(0.439989 0 0)
(0.439989 0 0)
(0.439989 0 0)
(0.439989 0 0)
(0.439989 0 0)
(0.439989 0 0)
(0.439989 0 0)
(0.439989 0 0)
(0.439989 0 0)
(0.439989 0 0)
(0.439989 0 0)
(0.439989 0 0)
(0.439989 0 0)
(0.439989 0 0)
(0.439989 0 0)
(0.439989 0 0)
(0.439989 0 0)
(0.439989 0 0)
(0.439989 0 0)
(0.439989 0 0)
(0.439989 0 0)
(0.439989 0 0)
(0.439989 0 0)
(0.439989 0 0)
(0.439989 0 0)
(0.439989 0 0)
(0.439989 0 0)
(0.439989 0 0)
(0.439989 0 0)
(0.439989 0 0)
(0.439989 0 0)
(0.439989 0 0)
(0.439989 0 0)
(0.439989 0 0)
)
;

boundaryField
{
    topWall
    {
        type            empty;
    }
    bottomWall
    {
        type            empty;
    }
    leftAndRight_half1
    {
        type            cyclic;
    }
    leftAndRight_half0
    {
        type            cyclic;
    }
    frontAndBack
    {
        type            empty;
    }
}


// ************************************************************************* //
