/*--------------------------------*- C++ -*----------------------------------*\
  =========                 |
  \\      /  F ield         | OpenFOAM: The Open Source CFD Toolbox
   \\    /   O peration     | Website:  https://openfoam.org
    \\  /    A nd           | Version:  9
     \\/     M anipulation  |
\*---------------------------------------------------------------------------*/
FoamFile
{
    format      ascii;
    class       volVectorField;
    location    "3.95";
    object      U;
}
// * * * * * * * * * * * * * * * * * * * * * * * * * * * * * * * * * * * * * //

dimensions      [0 1 -1 0 0 0 0];

internalField   nonuniform List<vector> 
1000
(
(0.131768 0 0)
(0.131693 0 0)
(0.131768 0 0)
(0.131691 0 0)
(0.131769 0 0)
(0.13169 0 0)
(0.131769 0 0)
(0.131689 0 0)
(0.13177 0 0)
(0.131687 0 0)
(0.13177 0 0)
(0.131686 0 0)
(0.13177 0 0)
(0.131685 0 0)
(0.131771 0 0)
(0.131684 0 0)
(0.131771 0 0)
(0.131683 0 0)
(0.131771 0 0)
(0.131682 0 0)
(0.131772 0 0)
(0.131682 0 0)
(0.131772 0 0)
(0.131681 0 0)
(0.131773 0 0)
(0.131681 0 0)
(0.131773 0 0)
(0.131681 0 0)
(0.131774 0 0)
(0.131681 0 0)
(0.131774 0 0)
(0.131681 0 0)
(0.131775 0 0)
(0.131682 0 0)
(0.131776 0 0)
(0.131682 0 0)
(0.131776 0 0)
(0.131684 0 0)
(0.131777 0 0)
(0.131685 0 0)
(0.131779 0 0)
(0.131687 0 0)
(0.13178 0 0)
(0.131689 0 0)
(0.131782 0 0)
(0.131692 0 0)
(0.131784 0 0)
(0.131695 0 0)
(0.131786 0 0)
(0.131698 0 0)
(0.131789 0 0)
(0.131703 0 0)
(0.131792 0 0)
(0.131707 0 0)
(0.131795 0 0)
(0.131712 0 0)
(0.131799 0 0)
(0.131718 0 0)
(0.131804 0 0)
(0.131725 0 0)
(0.131809 0 0)
(0.131732 0 0)
(0.131815 0 0)
(0.131741 0 0)
(0.131821 0 0)
(0.13175 0 0)
(0.131829 0 0)
(0.13176 0 0)
(0.131837 0 0)
(0.13177 0 0)
(0.131846 0 0)
(0.131782 0 0)
(0.131856 0 0)
(0.131795 0 0)
(0.131867 0 0)
(0.131809 0 0)
(0.131879 0 0)
(0.131824 0 0)
(0.131892 0 0)
(0.13184 0 0)
(0.131906 0 0)
(0.131858 0 0)
(0.131922 0 0)
(0.131876 0 0)
(0.131942 0 0)
(0.131892 0 0)
(0.131966 0 0)
(0.131904 0 0)
(0.132002 0 0)
(0.131905 0 0)
(0.132058 0 0)
(0.131889 0 0)
(0.132136 0 0)
(0.131867 0 0)
(0.132224 0 0)
(0.131877 0 0)
(0.132288 0 0)
(0.131969 0 0)
(0.132318 0 0)
(0.132135 0 0)
(0.132371 0 0)
(0.132304 0 0)
(0.132473 0 0)
(0.132444 0 0)
(0.132587 0 0)
(0.132558 0 0)
(0.132684 0 0)
(0.132646 0 0)
(0.132755 0 0)
(0.132709 0 0)
(0.132804 0 0)
(0.132754 0 0)
(0.132838 0 0)
(0.132787 0 0)
(0.132863 0 0)
(0.132814 0 0)
(0.132884 0 0)
(0.132839 0 0)
(0.132905 0 0)
(0.132864 0 0)
(0.132926 0 0)
(0.132889 0 0)
(0.132948 0 0)
(0.132915 0 0)
(0.132971 0 0)
(0.132942 0 0)
(0.132995 0 0)
(0.132969 0 0)
(0.133019 0 0)
(0.132998 0 0)
(0.133045 0 0)
(0.133027 0 0)
(0.133072 0 0)
(0.133057 0 0)
(0.1331 0 0)
(0.133087 0 0)
(0.133128 0 0)
(0.133118 0 0)
(0.133157 0 0)
(0.13315 0 0)
(0.133187 0 0)
(0.133182 0 0)
(0.133217 0 0)
(0.133215 0 0)
(0.133248 0 0)
(0.133248 0 0)
(0.13328 0 0)
(0.133281 0 0)
(0.133311 0 0)
(0.133314 0 0)
(0.133343 0 0)
(0.133348 0 0)
(0.133375 0 0)
(0.133382 0 0)
(0.133408 0 0)
(0.133415 0 0)
(0.13344 0 0)
(0.133448 0 0)
(0.133472 0 0)
(0.133481 0 0)
(0.133504 0 0)
(0.133514 0 0)
(0.133535 0 0)
(0.133546 0 0)
(0.133566 0 0)
(0.133577 0 0)
(0.133596 0 0)
(0.133608 0 0)
(0.133626 0 0)
(0.133638 0 0)
(0.133655 0 0)
(0.133667 0 0)
(0.133683 0 0)
(0.133695 0 0)
(0.13371 0 0)
(0.133721 0 0)
(0.133736 0 0)
(0.133747 0 0)
(0.13376 0 0)
(0.133771 0 0)
(0.133783 0 0)
(0.133794 0 0)
(0.133804 0 0)
(0.133815 0 0)
(0.133824 0 0)
(0.133835 0 0)
(0.133841 0 0)
(0.133853 0 0)
(0.133856 0 0)
(0.13387 0 0)
(0.133869 0 0)
(0.133884 0 0)
(0.133881 0 0)
(0.133896 0 0)
(0.133892 0 0)
(0.133904 0 0)
(0.133903 0 0)
(0.133912 0 0)
(0.133915 0 0)
(0.133926 0 0)
(0.133931 0 0)
(0.133944 0 0)
(0.133947 0 0)
(0.133944 0 0)
(0.133914 0 0)
(0.133863 0 0)
(0.133782 0 0)
(0.133694 0 0)
(0.133602 0 0)
(0.133526 0 0)
(0.133463 0 0)
(0.133423 0 0)
(0.133392 0 0)
(0.133378 0 0)
(0.133366 0 0)
(0.133363 0 0)
(0.13336 0 0)
(0.133361 0 0)
(0.133359 0 0)
(0.133361 0 0)
(0.13336 0 0)
(0.133361 0 0)
(0.133359 0 0)
(0.133359 0 0)
(0.133356 0 0)
(0.133355 0 0)
(0.133351 0 0)
(0.13335 0 0)
(0.133345 0 0)
(0.133342 0 0)
(0.133336 0 0)
(0.133333 0 0)
(0.133326 0 0)
(0.133322 0 0)
(0.133314 0 0)
(0.133309 0 0)
(0.1333 0 0)
(0.133294 0 0)
(0.133285 0 0)
(0.133278 0 0)
(0.133268 0 0)
(0.13326 0 0)
(0.133249 0 0)
(0.13324 0 0)
(0.133229 0 0)
(0.133219 0 0)
(0.133208 0 0)
(0.133197 0 0)
(0.133185 0 0)
(0.133173 0 0)
(0.13316 0 0)
(0.133148 0 0)
(0.133135 0 0)
(0.133122 0 0)
(0.133108 0 0)
(0.133095 0 0)
(0.133081 0 0)
(0.133067 0 0)
(0.133052 0 0)
(0.133038 0 0)
(0.133023 0 0)
(0.133008 0 0)
(0.132992 0 0)
(0.132977 0 0)
(0.132961 0 0)
(0.132946 0 0)
(0.13293 0 0)
(0.132914 0 0)
(0.132898 0 0)
(0.132881 0 0)
(0.132865 0 0)
(0.132849 0 0)
(0.132832 0 0)
(0.132816 0 0)
(0.132799 0 0)
(0.132782 0 0)
(0.132765 0 0)
(0.132749 0 0)
(0.132732 0 0)
(0.132715 0 0)
(0.132698 0 0)
(0.132681 0 0)
(0.132665 0 0)
(0.132648 0 0)
(0.132631 0 0)
(0.132615 0 0)
(0.132598 0 0)
(0.132581 0 0)
(0.132565 0 0)
(0.132549 0 0)
(0.132532 0 0)
(0.132516 0 0)
(0.1325 0 0)
(0.132484 0 0)
(0.132468 0 0)
(0.132452 0 0)
(0.132437 0 0)
(0.132421 0 0)
(0.132406 0 0)
(0.132391 0 0)
(0.132376 0 0)
(0.132361 0 0)
(0.132346 0 0)
(0.132332 0 0)
(0.132317 0 0)
(0.132303 0 0)
(0.132289 0 0)
(0.132275 0 0)
(0.132262 0 0)
(0.132248 0 0)
(0.132235 0 0)
(0.132222 0 0)
(0.132209 0 0)
(0.132196 0 0)
(0.132184 0 0)
(0.132172 0 0)
(0.13216 0 0)
(0.132148 0 0)
(0.132136 0 0)
(0.132125 0 0)
(0.132113 0 0)
(0.132102 0 0)
(0.132092 0 0)
(0.132081 0 0)
(0.132071 0 0)
(0.132061 0 0)
(0.132051 0 0)
(0.132041 0 0)
(0.132032 0 0)
(0.132022 0 0)
(0.132013 0 0)
(0.132004 0 0)
(0.131996 0 0)
(0.131987 0 0)
(0.131979 0 0)
(0.131971 0 0)
(0.131963 0 0)
(0.131955 0 0)
(0.131948 0 0)
(0.13194 0 0)
(0.131933 0 0)
(0.131927 0 0)
(0.13192 0 0)
(0.131913 0 0)
(0.131907 0 0)
(0.131901 0 0)
(0.131895 0 0)
(0.131889 0 0)
(0.131883 0 0)
(0.131878 0 0)
(0.131872 0 0)
(0.131867 0 0)
(0.131862 0 0)
(0.131857 0 0)
(0.131853 0 0)
(0.131848 0 0)
(0.131844 0 0)
(0.13184 0 0)
(0.131835 0 0)
(0.131831 0 0)
(0.131828 0 0)
(0.131824 0 0)
(0.13182 0 0)
(0.131817 0 0)
(0.131814 0 0)
(0.13181 0 0)
(0.131807 0 0)
(0.131804 0 0)
(0.131801 0 0)
(0.131799 0 0)
(0.131796 0 0)
(0.131793 0 0)
(0.131791 0 0)
(0.131788 0 0)
(0.131786 0 0)
(0.131784 0 0)
(0.131782 0 0)
(0.13178 0 0)
(0.131778 0 0)
(0.131776 0 0)
(0.131774 0 0)
(0.131772 0 0)
(0.131771 0 0)
(0.131769 0 0)
(0.131768 0 0)
(0.131766 0 0)
(0.131765 0 0)
(0.131763 0 0)
(0.131762 0 0)
(0.131761 0 0)
(0.13176 0 0)
(0.131759 0 0)
(0.131758 0 0)
(0.131757 0 0)
(0.131756 0 0)
(0.131755 0 0)
(0.131754 0 0)
(0.131753 0 0)
(0.131752 0 0)
(0.131751 0 0)
(0.131751 0 0)
(0.13175 0 0)
(0.131749 0 0)
(0.131749 0 0)
(0.131748 0 0)
(0.131748 0 0)
(0.131747 0 0)
(0.131747 0 0)
(0.131746 0 0)
(0.131746 0 0)
(0.131745 0 0)
(0.131745 0 0)
(0.131744 0 0)
(0.131744 0 0)
(0.131744 0 0)
(0.131743 0 0)
(0.131743 0 0)
(0.131743 0 0)
(0.131742 0 0)
(0.131742 0 0)
(0.131742 0 0)
(0.131742 0 0)
(0.131741 0 0)
(0.131741 0 0)
(0.131741 0 0)
(0.131741 0 0)
(0.131741 0 0)
(0.131741 0 0)
(0.13174 0 0)
(0.13174 0 0)
(0.13174 0 0)
(0.13174 0 0)
(0.13174 0 0)
(0.13174 0 0)
(0.13174 0 0)
(0.131739 0 0)
(0.131739 0 0)
(0.131739 0 0)
(0.131739 0 0)
(0.131739 0 0)
(0.131739 0 0)
(0.131739 0 0)
(0.131739 0 0)
(0.131739 0 0)
(0.131739 0 0)
(0.131739 0 0)
(0.131739 0 0)
(0.131739 0 0)
(0.131739 0 0)
(0.131739 0 0)
(0.131739 0 0)
(0.131738 0 0)
(0.131738 0 0)
(0.131738 0 0)
(0.131738 0 0)
(0.131738 0 0)
(0.131738 0 0)
(0.131738 0 0)
(0.131738 0 0)
(0.131738 0 0)
(0.131738 0 0)
(0.131738 0 0)
(0.131738 0 0)
(0.131738 0 0)
(0.131738 0 0)
(0.131738 0 0)
(0.131738 0 0)
(0.131738 0 0)
(0.131738 0 0)
(0.131738 0 0)
(0.131738 0 0)
(0.131738 0 0)
(0.131738 0 0)
(0.131738 0 0)
(0.131738 0 0)
(0.131738 0 0)
(0.131738 0 0)
(0.131738 0 0)
(0.131738 0 0)
(0.131738 0 0)
(0.131738 0 0)
(0.131738 0 0)
(0.131738 0 0)
(0.131738 0 0)
(0.131738 0 0)
(0.131738 0 0)
(0.131738 0 0)
(0.131738 0 0)
(0.131738 0 0)
(0.131738 0 0)
(0.131738 0 0)
(0.131738 0 0)
(0.131738 0 0)
(0.131738 0 0)
(0.131738 0 0)
(0.131738 0 0)
(0.131738 0 0)
(0.131738 0 0)
(0.131738 0 0)
(0.131738 0 0)
(0.131738 0 0)
(0.131738 0 0)
(0.131738 0 0)
(0.131738 0 0)
(0.131738 0 0)
(0.131738 0 0)
(0.131738 0 0)
(0.131738 0 0)
(0.131738 0 0)
(0.131738 0 0)
(0.131738 0 0)
(0.131738 0 0)
(0.131738 0 0)
(0.131738 0 0)
(0.131738 0 0)
(0.131738 0 0)
(0.131738 0 0)
(0.131738 0 0)
(0.131738 0 0)
(0.131738 0 0)
(0.131738 0 0)
(0.131738 0 0)
(0.131738 0 0)
(0.131738 0 0)
(0.131738 0 0)
(0.131738 0 0)
(0.131738 0 0)
(0.131738 0 0)
(0.131738 0 0)
(0.131738 0 0)
(0.131738 0 0)
(0.131738 0 0)
(0.131738 0 0)
(0.131738 0 0)
(0.131738 0 0)
(0.131738 0 0)
(0.131738 0 0)
(0.131738 0 0)
(0.131738 0 0)
(0.131738 0 0)
(0.131738 0 0)
(0.131738 0 0)
(0.131738 0 0)
(0.131738 0 0)
(0.131738 0 0)
(0.131738 0 0)
(0.131738 0 0)
(0.131738 0 0)
(0.131738 0 0)
(0.131738 0 0)
(0.131738 0 0)
(0.131738 0 0)
(0.131738 0 0)
(0.131738 0 0)
(0.131738 0 0)
(0.131738 0 0)
(0.131738 0 0)
(0.131738 0 0)
(0.131738 0 0)
(0.131738 0 0)
(0.131738 0 0)
(0.131738 0 0)
(0.131738 0 0)
(0.131738 0 0)
(0.131738 0 0)
(0.131738 0 0)
(0.131738 0 0)
(0.131738 0 0)
(0.131738 0 0)
(0.131738 0 0)
(0.131738 0 0)
(0.131738 0 0)
(0.131738 0 0)
(0.131738 0 0)
(0.131738 0 0)
(0.131738 0 0)
(0.131738 0 0)
(0.131738 0 0)
(0.131738 0 0)
(0.131738 0 0)
(0.131738 0 0)
(0.131738 0 0)
(0.131738 0 0)
(0.131738 0 0)
(0.131738 0 0)
(0.131738 0 0)
(0.131738 0 0)
(0.131738 0 0)
(0.131738 0 0)
(0.131738 0 0)
(0.131738 0 0)
(0.131738 0 0)
(0.131738 0 0)
(0.131738 0 0)
(0.131738 0 0)
(0.131738 0 0)
(0.131738 0 0)
(0.131738 0 0)
(0.131738 0 0)
(0.131738 0 0)
(0.131738 0 0)
(0.131738 0 0)
(0.131738 0 0)
(0.131738 0 0)
(0.131738 0 0)
(0.131738 0 0)
(0.131738 0 0)
(0.131738 0 0)
(0.131738 0 0)
(0.131738 0 0)
(0.131738 0 0)
(0.131738 0 0)
(0.131738 0 0)
(0.131738 0 0)
(0.131738 0 0)
(0.131738 0 0)
(0.131738 0 0)
(0.131738 0 0)
(0.131738 0 0)
(0.131738 0 0)
(0.131738 0 0)
(0.131738 0 0)
(0.131738 0 0)
(0.131738 0 0)
(0.131738 0 0)
(0.131738 0 0)
(0.131738 0 0)
(0.131738 0 0)
(0.131738 0 0)
(0.131738 0 0)
(0.131738 0 0)
(0.131738 0 0)
(0.131738 0 0)
(0.131738 0 0)
(0.131738 0 0)
(0.131738 0 0)
(0.131738 0 0)
(0.131738 0 0)
(0.131738 0 0)
(0.131738 0 0)
(0.131738 0 0)
(0.131738 0 0)
(0.131738 0 0)
(0.131738 0 0)
(0.131738 0 0)
(0.131738 0 0)
(0.131738 0 0)
(0.131738 0 0)
(0.131738 0 0)
(0.131738 0 0)
(0.131738 0 0)
(0.131738 0 0)
(0.131738 0 0)
(0.131738 0 0)
(0.131738 0 0)
(0.131738 0 0)
(0.131738 0 0)
(0.131738 0 0)
(0.131738 0 0)
(0.131738 0 0)
(0.131738 0 0)
(0.131738 0 0)
(0.131738 0 0)
(0.131738 0 0)
(0.131738 0 0)
(0.131738 0 0)
(0.131738 0 0)
(0.131738 0 0)
(0.131738 0 0)
(0.131738 0 0)
(0.131738 0 0)
(0.131738 0 0)
(0.131738 0 0)
(0.131738 0 0)
(0.131738 0 0)
(0.131738 0 0)
(0.131738 0 0)
(0.131738 0 0)
(0.131738 0 0)
(0.131738 0 0)
(0.131738 0 0)
(0.131738 0 0)
(0.131738 0 0)
(0.131738 0 0)
(0.131738 0 0)
(0.131738 0 0)
(0.131738 0 0)
(0.131738 0 0)
(0.131738 0 0)
(0.131738 0 0)
(0.131738 0 0)
(0.131738 0 0)
(0.131738 0 0)
(0.131738 0 0)
(0.131738 0 0)
(0.131738 0 0)
(0.131738 0 0)
(0.131738 0 0)
(0.131738 0 0)
(0.131738 0 0)
(0.131738 0 0)
(0.131738 0 0)
(0.131738 0 0)
(0.131738 0 0)
(0.131738 0 0)
(0.131738 0 0)
(0.131738 0 0)
(0.131738 0 0)
(0.131738 0 0)
(0.131738 0 0)
(0.131738 0 0)
(0.131738 0 0)
(0.131738 0 0)
(0.131738 0 0)
(0.131738 0 0)
(0.131738 0 0)
(0.131738 0 0)
(0.131738 0 0)
(0.131738 0 0)
(0.131738 0 0)
(0.131738 0 0)
(0.131738 0 0)
(0.131738 0 0)
(0.131738 0 0)
(0.131738 0 0)
(0.131738 0 0)
(0.131738 0 0)
(0.131738 0 0)
(0.131738 0 0)
(0.131738 0 0)
(0.131738 0 0)
(0.131738 0 0)
(0.131738 0 0)
(0.131738 0 0)
(0.131738 0 0)
(0.131738 0 0)
(0.131738 0 0)
(0.131738 0 0)
(0.131738 0 0)
(0.131738 0 0)
(0.131738 0 0)
(0.131738 0 0)
(0.131738 0 0)
(0.131738 0 0)
(0.131738 0 0)
(0.131738 0 0)
(0.131738 0 0)
(0.131738 0 0)
(0.131738 0 0)
(0.131738 0 0)
(0.131738 0 0)
(0.131738 0 0)
(0.131738 0 0)
(0.131738 0 0)
(0.131738 0 0)
(0.131738 0 0)
(0.131738 0 0)
(0.131738 0 0)
(0.131738 0 0)
(0.131738 0 0)
(0.131738 0 0)
(0.131738 0 0)
(0.131738 0 0)
(0.131738 0 0)
(0.131738 0 0)
(0.131738 0 0)
(0.131738 0 0)
(0.131738 0 0)
(0.131738 0 0)
(0.131738 0 0)
(0.131738 0 0)
(0.131738 0 0)
(0.131738 0 0)
(0.131738 0 0)
(0.131738 0 0)
(0.131738 0 0)
(0.131738 0 0)
(0.131738 0 0)
(0.131738 0 0)
(0.131738 0 0)
(0.131738 0 0)
(0.131738 0 0)
(0.131738 0 0)
(0.131738 0 0)
(0.131738 0 0)
(0.131738 0 0)
(0.131738 0 0)
(0.131738 0 0)
(0.131738 0 0)
(0.131738 0 0)
(0.131738 0 0)
(0.131738 0 0)
(0.131738 0 0)
(0.131738 0 0)
(0.131738 0 0)
(0.131738 0 0)
(0.131738 0 0)
(0.131738 0 0)
(0.131738 0 0)
(0.131738 0 0)
(0.131738 0 0)
(0.131738 0 0)
(0.131738 0 0)
(0.131738 0 0)
(0.131738 0 0)
(0.131738 0 0)
(0.131738 0 0)
(0.131738 0 0)
(0.131738 0 0)
(0.131738 0 0)
(0.131738 0 0)
(0.131738 0 0)
(0.131738 0 0)
(0.131738 0 0)
(0.131738 0 0)
(0.131738 0 0)
(0.131738 0 0)
(0.131738 0 0)
(0.131738 0 0)
(0.131738 0 0)
(0.131738 0 0)
(0.131738 0 0)
(0.131738 0 0)
(0.131738 0 0)
(0.131738 0 0)
(0.131738 0 0)
(0.131738 0 0)
(0.131738 0 0)
(0.131738 0 0)
(0.131738 0 0)
(0.131738 0 0)
(0.131738 0 0)
(0.131738 0 0)
(0.131738 0 0)
(0.131738 0 0)
(0.131738 0 0)
(0.131738 0 0)
(0.131738 0 0)
(0.131738 0 0)
(0.131738 0 0)
(0.131738 0 0)
(0.131738 0 0)
(0.131738 0 0)
(0.131738 0 0)
(0.131738 0 0)
(0.131738 0 0)
(0.131738 0 0)
(0.131738 0 0)
(0.131738 0 0)
(0.131738 0 0)
(0.131738 0 0)
(0.131738 0 0)
(0.131738 0 0)
(0.131738 0 0)
(0.131738 0 0)
(0.131738 0 0)
(0.131738 0 0)
(0.131738 0 0)
(0.131738 0 0)
(0.131738 0 0)
(0.131738 0 0)
(0.131738 0 0)
(0.131738 0 0)
(0.131738 0 0)
(0.131738 0 0)
(0.131738 0 0)
(0.131738 0 0)
(0.131738 0 0)
(0.131738 0 0)
(0.131738 0 0)
(0.131738 0 0)
(0.131738 0 0)
(0.131738 0 0)
(0.131738 0 0)
(0.131738 0 0)
(0.131738 0 0)
(0.131738 0 0)
(0.131738 0 0)
(0.131738 0 0)
(0.131738 0 0)
(0.131738 0 0)
(0.131737 0 0)
(0.131739 0 0)
(0.131737 0 0)
(0.131739 0 0)
(0.131737 0 0)
(0.131739 0 0)
(0.131737 0 0)
(0.131739 0 0)
(0.131737 0 0)
(0.131739 0 0)
(0.131737 0 0)
(0.131739 0 0)
(0.131737 0 0)
(0.131739 0 0)
(0.131737 0 0)
(0.131739 0 0)
(0.131737 0 0)
(0.131739 0 0)
(0.131737 0 0)
(0.131739 0 0)
(0.131736 0 0)
(0.13174 0 0)
(0.131736 0 0)
(0.13174 0 0)
(0.131736 0 0)
(0.13174 0 0)
(0.131736 0 0)
(0.13174 0 0)
(0.131736 0 0)
(0.13174 0 0)
(0.131735 0 0)
(0.131741 0 0)
(0.131735 0 0)
(0.131741 0 0)
(0.131735 0 0)
(0.131741 0 0)
(0.131735 0 0)
(0.131741 0 0)
(0.131734 0 0)
(0.131742 0 0)
(0.131734 0 0)
(0.131742 0 0)
(0.131734 0 0)
(0.131742 0 0)
(0.131733 0 0)
(0.131743 0 0)
(0.131733 0 0)
(0.131743 0 0)
(0.131732 0 0)
(0.131743 0 0)
(0.131732 0 0)
(0.131744 0 0)
(0.131731 0 0)
(0.131744 0 0)
(0.131731 0 0)
(0.131745 0 0)
(0.13173 0 0)
(0.131745 0 0)
(0.13173 0 0)
(0.131746 0 0)
(0.131729 0 0)
(0.131746 0 0)
(0.131728 0 0)
(0.131747 0 0)
(0.131727 0 0)
(0.131748 0 0)
(0.131727 0 0)
(0.131748 0 0)
(0.131726 0 0)
(0.131749 0 0)
(0.131725 0 0)
(0.13175 0 0)
(0.131724 0 0)
(0.13175 0 0)
(0.131723 0 0)
(0.131751 0 0)
(0.131722 0 0)
(0.131752 0 0)
(0.131721 0 0)
(0.131753 0 0)
(0.13172 0 0)
(0.131753 0 0)
(0.131719 0 0)
(0.131754 0 0)
(0.131718 0 0)
(0.131755 0 0)
(0.131717 0 0)
(0.131756 0 0)
(0.131716 0 0)
(0.131756 0 0)
(0.131714 0 0)
(0.131757 0 0)
(0.131713 0 0)
(0.131758 0 0)
(0.131712 0 0)
(0.131759 0 0)
(0.13171 0 0)
(0.13176 0 0)
(0.131709 0 0)
(0.131761 0 0)
(0.131708 0 0)
(0.131761 0 0)
(0.131706 0 0)
(0.131762 0 0)
(0.131705 0 0)
(0.131763 0 0)
(0.131703 0 0)
(0.131764 0 0)
(0.131702 0 0)
(0.131764 0 0)
(0.1317 0 0)
(0.131765 0 0)
(0.131699 0 0)
(0.131766 0 0)
(0.131697 0 0)
(0.131766 0 0)
(0.131696 0 0)
(0.131767 0 0)
(0.131694 0 0)
)
;

boundaryField
{
    topWall
    {
        type            empty;
    }
    bottomWall
    {
        type            empty;
    }
    leftAndRight_half1
    {
        type            cyclic;
    }
    leftAndRight_half0
    {
        type            cyclic;
    }
    frontAndBack
    {
        type            empty;
    }
}


// ************************************************************************* //
