/*--------------------------------*- C++ -*----------------------------------*\
  =========                 |
  \\      /  F ield         | OpenFOAM: The Open Source CFD Toolbox
   \\    /   O peration     | Website:  https://openfoam.org
    \\  /    A nd           | Version:  9
     \\/     M anipulation  |
\*---------------------------------------------------------------------------*/
FoamFile
{
    format      ascii;
    class       volVectorField;
    location    "2.75";
    object      U;
}
// * * * * * * * * * * * * * * * * * * * * * * * * * * * * * * * * * * * * * //

dimensions      [0 1 -1 0 0 0 0];

internalField   nonuniform List<vector> 
1000
(
(0.131762 0 0)
(0.131699 0 0)
(0.131763 0 0)
(0.131696 0 0)
(0.131764 0 0)
(0.131694 0 0)
(0.131764 0 0)
(0.131691 0 0)
(0.131765 0 0)
(0.131688 0 0)
(0.131766 0 0)
(0.131685 0 0)
(0.131766 0 0)
(0.131683 0 0)
(0.131767 0 0)
(0.13168 0 0)
(0.131767 0 0)
(0.131677 0 0)
(0.131767 0 0)
(0.131674 0 0)
(0.131768 0 0)
(0.131671 0 0)
(0.131768 0 0)
(0.131668 0 0)
(0.131768 0 0)
(0.131666 0 0)
(0.131768 0 0)
(0.131663 0 0)
(0.131767 0 0)
(0.13166 0 0)
(0.131767 0 0)
(0.131658 0 0)
(0.131767 0 0)
(0.131655 0 0)
(0.131766 0 0)
(0.131653 0 0)
(0.131766 0 0)
(0.131651 0 0)
(0.131765 0 0)
(0.13165 0 0)
(0.131765 0 0)
(0.131648 0 0)
(0.131764 0 0)
(0.131647 0 0)
(0.131764 0 0)
(0.131646 0 0)
(0.131764 0 0)
(0.131646 0 0)
(0.131764 0 0)
(0.131646 0 0)
(0.131764 0 0)
(0.131647 0 0)
(0.131764 0 0)
(0.131648 0 0)
(0.131765 0 0)
(0.131649 0 0)
(0.131766 0 0)
(0.131652 0 0)
(0.131767 0 0)
(0.131655 0 0)
(0.131769 0 0)
(0.131659 0 0)
(0.131771 0 0)
(0.131664 0 0)
(0.131775 0 0)
(0.13167 0 0)
(0.131779 0 0)
(0.131677 0 0)
(0.131783 0 0)
(0.131686 0 0)
(0.131789 0 0)
(0.131695 0 0)
(0.131796 0 0)
(0.131706 0 0)
(0.131804 0 0)
(0.131718 0 0)
(0.131813 0 0)
(0.131731 0 0)
(0.131824 0 0)
(0.131747 0 0)
(0.131836 0 0)
(0.131763 0 0)
(0.131851 0 0)
(0.131781 0 0)
(0.131868 0 0)
(0.131797 0 0)
(0.131892 0 0)
(0.13181 0 0)
(0.131927 0 0)
(0.131812 0 0)
(0.131983 0 0)
(0.131798 0 0)
(0.132062 0 0)
(0.131778 0 0)
(0.132151 0 0)
(0.13179 0 0)
(0.132216 0 0)
(0.131886 0 0)
(0.132248 0 0)
(0.132057 0 0)
(0.132305 0 0)
(0.13223 0 0)
(0.13241 0 0)
(0.132376 0 0)
(0.132528 0 0)
(0.132496 0 0)
(0.13263 0 0)
(0.13259 0 0)
(0.132707 0 0)
(0.132661 0 0)
(0.132762 0 0)
(0.132714 0 0)
(0.132803 0 0)
(0.132756 0 0)
(0.132836 0 0)
(0.132793 0 0)
(0.132867 0 0)
(0.132828 0 0)
(0.132897 0 0)
(0.132863 0 0)
(0.132928 0 0)
(0.132899 0 0)
(0.13296 0 0)
(0.132937 0 0)
(0.132995 0 0)
(0.132976 0 0)
(0.13303 0 0)
(0.133017 0 0)
(0.133068 0 0)
(0.133058 0 0)
(0.133107 0 0)
(0.133101 0 0)
(0.133147 0 0)
(0.133145 0 0)
(0.133188 0 0)
(0.13319 0 0)
(0.133231 0 0)
(0.133236 0 0)
(0.133274 0 0)
(0.133282 0 0)
(0.133319 0 0)
(0.133329 0 0)
(0.133364 0 0)
(0.133377 0 0)
(0.133409 0 0)
(0.133424 0 0)
(0.133456 0 0)
(0.133472 0 0)
(0.133502 0 0)
(0.13352 0 0)
(0.133548 0 0)
(0.133568 0 0)
(0.133595 0 0)
(0.133615 0 0)
(0.133641 0 0)
(0.133662 0 0)
(0.133687 0 0)
(0.133709 0 0)
(0.133732 0 0)
(0.133754 0 0)
(0.133776 0 0)
(0.133799 0 0)
(0.13382 0 0)
(0.133843 0 0)
(0.133862 0 0)
(0.133885 0 0)
(0.133903 0 0)
(0.133926 0 0)
(0.133943 0 0)
(0.133965 0 0)
(0.133981 0 0)
(0.134002 0 0)
(0.134017 0 0)
(0.134037 0 0)
(0.134051 0 0)
(0.134071 0 0)
(0.134084 0 0)
(0.134102 0 0)
(0.134113 0 0)
(0.134131 0 0)
(0.134141 0 0)
(0.134157 0 0)
(0.134166 0 0)
(0.13418 0 0)
(0.134187 0 0)
(0.134202 0 0)
(0.134206 0 0)
(0.13422 0 0)
(0.134221 0 0)
(0.134236 0 0)
(0.134233 0 0)
(0.134249 0 0)
(0.134242 0 0)
(0.134257 0 0)
(0.13425 0 0)
(0.134261 0 0)
(0.134257 0 0)
(0.134265 0 0)
(0.134263 0 0)
(0.134272 0 0)
(0.134273 0 0)
(0.134283 0 0)
(0.13428 0 0)
(0.134274 0 0)
(0.134238 0 0)
(0.134183 0 0)
(0.134097 0 0)
(0.134005 0 0)
(0.133906 0 0)
(0.133825 0 0)
(0.133755 0 0)
(0.133709 0 0)
(0.133672 0 0)
(0.13365 0 0)
(0.133632 0 0)
(0.133622 0 0)
(0.133611 0 0)
(0.133605 0 0)
(0.133595 0 0)
(0.133589 0 0)
(0.133579 0 0)
(0.133572 0 0)
(0.133562 0 0)
(0.133554 0 0)
(0.133542 0 0)
(0.133532 0 0)
(0.133519 0 0)
(0.133508 0 0)
(0.133494 0 0)
(0.133482 0 0)
(0.133467 0 0)
(0.133454 0 0)
(0.133438 0 0)
(0.133424 0 0)
(0.133407 0 0)
(0.133392 0 0)
(0.133374 0 0)
(0.133358 0 0)
(0.133339 0 0)
(0.133322 0 0)
(0.133303 0 0)
(0.133284 0 0)
(0.133265 0 0)
(0.133246 0 0)
(0.133225 0 0)
(0.133206 0 0)
(0.133185 0 0)
(0.133164 0 0)
(0.133143 0 0)
(0.133122 0 0)
(0.1331 0 0)
(0.133079 0 0)
(0.133057 0 0)
(0.133035 0 0)
(0.133013 0 0)
(0.132991 0 0)
(0.132968 0 0)
(0.132946 0 0)
(0.132924 0 0)
(0.132901 0 0)
(0.132879 0 0)
(0.132856 0 0)
(0.132834 0 0)
(0.132811 0 0)
(0.132789 0 0)
(0.132766 0 0)
(0.132744 0 0)
(0.132722 0 0)
(0.132699 0 0)
(0.132677 0 0)
(0.132655 0 0)
(0.132634 0 0)
(0.132612 0 0)
(0.13259 0 0)
(0.132569 0 0)
(0.132548 0 0)
(0.132527 0 0)
(0.132507 0 0)
(0.132486 0 0)
(0.132466 0 0)
(0.132446 0 0)
(0.132426 0 0)
(0.132407 0 0)
(0.132388 0 0)
(0.132369 0 0)
(0.13235 0 0)
(0.132332 0 0)
(0.132314 0 0)
(0.132296 0 0)
(0.132279 0 0)
(0.132262 0 0)
(0.132245 0 0)
(0.132228 0 0)
(0.132212 0 0)
(0.132197 0 0)
(0.132181 0 0)
(0.132166 0 0)
(0.132151 0 0)
(0.132137 0 0)
(0.132123 0 0)
(0.132109 0 0)
(0.132095 0 0)
(0.132082 0 0)
(0.13207 0 0)
(0.132057 0 0)
(0.132045 0 0)
(0.132033 0 0)
(0.132022 0 0)
(0.132011 0 0)
(0.132 0 0)
(0.131989 0 0)
(0.131979 0 0)
(0.131969 0 0)
(0.13196 0 0)
(0.13195 0 0)
(0.131941 0 0)
(0.131933 0 0)
(0.131924 0 0)
(0.131916 0 0)
(0.131908 0 0)
(0.131901 0 0)
(0.131893 0 0)
(0.131886 0 0)
(0.13188 0 0)
(0.131873 0 0)
(0.131867 0 0)
(0.131861 0 0)
(0.131855 0 0)
(0.131849 0 0)
(0.131844 0 0)
(0.131839 0 0)
(0.131834 0 0)
(0.131829 0 0)
(0.131824 0 0)
(0.13182 0 0)
(0.131816 0 0)
(0.131812 0 0)
(0.131808 0 0)
(0.131804 0 0)
(0.131801 0 0)
(0.131797 0 0)
(0.131794 0 0)
(0.131791 0 0)
(0.131788 0 0)
(0.131786 0 0)
(0.131783 0 0)
(0.13178 0 0)
(0.131778 0 0)
(0.131776 0 0)
(0.131774 0 0)
(0.131771 0 0)
(0.13177 0 0)
(0.131768 0 0)
(0.131766 0 0)
(0.131764 0 0)
(0.131763 0 0)
(0.131761 0 0)
(0.13176 0 0)
(0.131758 0 0)
(0.131757 0 0)
(0.131756 0 0)
(0.131755 0 0)
(0.131754 0 0)
(0.131753 0 0)
(0.131752 0 0)
(0.131751 0 0)
(0.13175 0 0)
(0.131749 0 0)
(0.131749 0 0)
(0.131748 0 0)
(0.131747 0 0)
(0.131747 0 0)
(0.131746 0 0)
(0.131745 0 0)
(0.131745 0 0)
(0.131744 0 0)
(0.131744 0 0)
(0.131744 0 0)
(0.131743 0 0)
(0.131743 0 0)
(0.131742 0 0)
(0.131742 0 0)
(0.131742 0 0)
(0.131742 0 0)
(0.131741 0 0)
(0.131741 0 0)
(0.131741 0 0)
(0.131741 0 0)
(0.13174 0 0)
(0.13174 0 0)
(0.13174 0 0)
(0.13174 0 0)
(0.13174 0 0)
(0.13174 0 0)
(0.131739 0 0)
(0.131739 0 0)
(0.131739 0 0)
(0.131739 0 0)
(0.131739 0 0)
(0.131739 0 0)
(0.131739 0 0)
(0.131739 0 0)
(0.131739 0 0)
(0.131739 0 0)
(0.131739 0 0)
(0.131739 0 0)
(0.131739 0 0)
(0.131738 0 0)
(0.131738 0 0)
(0.131738 0 0)
(0.131738 0 0)
(0.131738 0 0)
(0.131738 0 0)
(0.131738 0 0)
(0.131738 0 0)
(0.131738 0 0)
(0.131738 0 0)
(0.131738 0 0)
(0.131738 0 0)
(0.131738 0 0)
(0.131738 0 0)
(0.131738 0 0)
(0.131738 0 0)
(0.131738 0 0)
(0.131738 0 0)
(0.131738 0 0)
(0.131738 0 0)
(0.131738 0 0)
(0.131738 0 0)
(0.131738 0 0)
(0.131738 0 0)
(0.131738 0 0)
(0.131738 0 0)
(0.131738 0 0)
(0.131738 0 0)
(0.131738 0 0)
(0.131738 0 0)
(0.131738 0 0)
(0.131738 0 0)
(0.131738 0 0)
(0.131738 0 0)
(0.131738 0 0)
(0.131738 0 0)
(0.131738 0 0)
(0.131738 0 0)
(0.131738 0 0)
(0.131738 0 0)
(0.131738 0 0)
(0.131738 0 0)
(0.131738 0 0)
(0.131738 0 0)
(0.131738 0 0)
(0.131738 0 0)
(0.131738 0 0)
(0.131738 0 0)
(0.131738 0 0)
(0.131738 0 0)
(0.131738 0 0)
(0.131738 0 0)
(0.131738 0 0)
(0.131738 0 0)
(0.131738 0 0)
(0.131738 0 0)
(0.131738 0 0)
(0.131738 0 0)
(0.131738 0 0)
(0.131738 0 0)
(0.131738 0 0)
(0.131738 0 0)
(0.131738 0 0)
(0.131738 0 0)
(0.131738 0 0)
(0.131738 0 0)
(0.131738 0 0)
(0.131738 0 0)
(0.131738 0 0)
(0.131738 0 0)
(0.131738 0 0)
(0.131738 0 0)
(0.131738 0 0)
(0.131738 0 0)
(0.131738 0 0)
(0.131738 0 0)
(0.131738 0 0)
(0.131738 0 0)
(0.131738 0 0)
(0.131738 0 0)
(0.131738 0 0)
(0.131738 0 0)
(0.131738 0 0)
(0.131738 0 0)
(0.131738 0 0)
(0.131738 0 0)
(0.131738 0 0)
(0.131738 0 0)
(0.131738 0 0)
(0.131738 0 0)
(0.131738 0 0)
(0.131738 0 0)
(0.131738 0 0)
(0.131738 0 0)
(0.131738 0 0)
(0.131738 0 0)
(0.131738 0 0)
(0.131738 0 0)
(0.131738 0 0)
(0.131738 0 0)
(0.131738 0 0)
(0.131738 0 0)
(0.131738 0 0)
(0.131738 0 0)
(0.131738 0 0)
(0.131738 0 0)
(0.131738 0 0)
(0.131738 0 0)
(0.131738 0 0)
(0.131738 0 0)
(0.131738 0 0)
(0.131738 0 0)
(0.131738 0 0)
(0.131738 0 0)
(0.131738 0 0)
(0.131738 0 0)
(0.131738 0 0)
(0.131738 0 0)
(0.131738 0 0)
(0.131738 0 0)
(0.131738 0 0)
(0.131738 0 0)
(0.131738 0 0)
(0.131738 0 0)
(0.131738 0 0)
(0.131738 0 0)
(0.131738 0 0)
(0.131738 0 0)
(0.131738 0 0)
(0.131738 0 0)
(0.131738 0 0)
(0.131738 0 0)
(0.131738 0 0)
(0.131738 0 0)
(0.131738 0 0)
(0.131738 0 0)
(0.131738 0 0)
(0.131738 0 0)
(0.131738 0 0)
(0.131738 0 0)
(0.131738 0 0)
(0.131738 0 0)
(0.131738 0 0)
(0.131738 0 0)
(0.131738 0 0)
(0.131738 0 0)
(0.131738 0 0)
(0.131738 0 0)
(0.131738 0 0)
(0.131738 0 0)
(0.131738 0 0)
(0.131738 0 0)
(0.131738 0 0)
(0.131738 0 0)
(0.131738 0 0)
(0.131738 0 0)
(0.131738 0 0)
(0.131738 0 0)
(0.131738 0 0)
(0.131738 0 0)
(0.131738 0 0)
(0.131738 0 0)
(0.131738 0 0)
(0.131738 0 0)
(0.131738 0 0)
(0.131738 0 0)
(0.131738 0 0)
(0.131738 0 0)
(0.131738 0 0)
(0.131738 0 0)
(0.131738 0 0)
(0.131738 0 0)
(0.131738 0 0)
(0.131738 0 0)
(0.131738 0 0)
(0.131738 0 0)
(0.131738 0 0)
(0.131738 0 0)
(0.131738 0 0)
(0.131738 0 0)
(0.131738 0 0)
(0.131738 0 0)
(0.131738 0 0)
(0.131738 0 0)
(0.131738 0 0)
(0.131738 0 0)
(0.131738 0 0)
(0.131738 0 0)
(0.131738 0 0)
(0.131738 0 0)
(0.131738 0 0)
(0.131738 0 0)
(0.131738 0 0)
(0.131738 0 0)
(0.131738 0 0)
(0.131738 0 0)
(0.131738 0 0)
(0.131738 0 0)
(0.131738 0 0)
(0.131738 0 0)
(0.131738 0 0)
(0.131738 0 0)
(0.131738 0 0)
(0.131738 0 0)
(0.131738 0 0)
(0.131738 0 0)
(0.131738 0 0)
(0.131738 0 0)
(0.131738 0 0)
(0.131738 0 0)
(0.131738 0 0)
(0.131738 0 0)
(0.131738 0 0)
(0.131738 0 0)
(0.131738 0 0)
(0.131738 0 0)
(0.131738 0 0)
(0.131738 0 0)
(0.131738 0 0)
(0.131738 0 0)
(0.131738 0 0)
(0.131738 0 0)
(0.131738 0 0)
(0.131738 0 0)
(0.131738 0 0)
(0.131738 0 0)
(0.131738 0 0)
(0.131738 0 0)
(0.131738 0 0)
(0.131738 0 0)
(0.131738 0 0)
(0.131738 0 0)
(0.131738 0 0)
(0.131738 0 0)
(0.131738 0 0)
(0.131738 0 0)
(0.131738 0 0)
(0.131738 0 0)
(0.131738 0 0)
(0.131738 0 0)
(0.131738 0 0)
(0.131738 0 0)
(0.131738 0 0)
(0.131738 0 0)
(0.131738 0 0)
(0.131738 0 0)
(0.131738 0 0)
(0.131738 0 0)
(0.131738 0 0)
(0.131738 0 0)
(0.131738 0 0)
(0.131738 0 0)
(0.131738 0 0)
(0.131738 0 0)
(0.131738 0 0)
(0.131738 0 0)
(0.131738 0 0)
(0.131738 0 0)
(0.131738 0 0)
(0.131738 0 0)
(0.131738 0 0)
(0.131738 0 0)
(0.131738 0 0)
(0.131738 0 0)
(0.131738 0 0)
(0.131738 0 0)
(0.131738 0 0)
(0.131738 0 0)
(0.131738 0 0)
(0.131738 0 0)
(0.131738 0 0)
(0.131738 0 0)
(0.131738 0 0)
(0.131738 0 0)
(0.131738 0 0)
(0.131738 0 0)
(0.131738 0 0)
(0.131738 0 0)
(0.131738 0 0)
(0.131738 0 0)
(0.131738 0 0)
(0.131738 0 0)
(0.131738 0 0)
(0.131738 0 0)
(0.131738 0 0)
(0.131738 0 0)
(0.131738 0 0)
(0.131738 0 0)
(0.131738 0 0)
(0.131738 0 0)
(0.131738 0 0)
(0.131738 0 0)
(0.131738 0 0)
(0.131738 0 0)
(0.131738 0 0)
(0.131738 0 0)
(0.131738 0 0)
(0.131738 0 0)
(0.131738 0 0)
(0.131738 0 0)
(0.131738 0 0)
(0.131738 0 0)
(0.131738 0 0)
(0.131738 0 0)
(0.131738 0 0)
(0.131738 0 0)
(0.131738 0 0)
(0.131738 0 0)
(0.131738 0 0)
(0.131738 0 0)
(0.131738 0 0)
(0.131738 0 0)
(0.131738 0 0)
(0.131738 0 0)
(0.131738 0 0)
(0.131738 0 0)
(0.131738 0 0)
(0.131738 0 0)
(0.131738 0 0)
(0.131738 0 0)
(0.131738 0 0)
(0.131738 0 0)
(0.131738 0 0)
(0.131738 0 0)
(0.131738 0 0)
(0.131738 0 0)
(0.131738 0 0)
(0.131738 0 0)
(0.131738 0 0)
(0.131738 0 0)
(0.131738 0 0)
(0.131738 0 0)
(0.131738 0 0)
(0.131738 0 0)
(0.131738 0 0)
(0.131738 0 0)
(0.131738 0 0)
(0.131738 0 0)
(0.131738 0 0)
(0.131738 0 0)
(0.131738 0 0)
(0.131738 0 0)
(0.131738 0 0)
(0.131738 0 0)
(0.131738 0 0)
(0.131738 0 0)
(0.131738 0 0)
(0.131738 0 0)
(0.131738 0 0)
(0.131738 0 0)
(0.131738 0 0)
(0.131738 0 0)
(0.131738 0 0)
(0.131738 0 0)
(0.131738 0 0)
(0.131738 0 0)
(0.131738 0 0)
(0.131738 0 0)
(0.131738 0 0)
(0.131738 0 0)
(0.131738 0 0)
(0.131738 0 0)
(0.131738 0 0)
(0.131738 0 0)
(0.131738 0 0)
(0.131738 0 0)
(0.131738 0 0)
(0.131738 0 0)
(0.131738 0 0)
(0.131738 0 0)
(0.131738 0 0)
(0.131738 0 0)
(0.131738 0 0)
(0.131738 0 0)
(0.131738 0 0)
(0.131738 0 0)
(0.131738 0 0)
(0.131738 0 0)
(0.131738 0 0)
(0.131738 0 0)
(0.131738 0 0)
(0.131738 0 0)
(0.131738 0 0)
(0.131738 0 0)
(0.131738 0 0)
(0.131738 0 0)
(0.131738 0 0)
(0.131738 0 0)
(0.131738 0 0)
(0.131738 0 0)
(0.131738 0 0)
(0.131738 0 0)
(0.131738 0 0)
(0.131738 0 0)
(0.131738 0 0)
(0.131738 0 0)
(0.131738 0 0)
(0.131738 0 0)
(0.131738 0 0)
(0.131738 0 0)
(0.131738 0 0)
(0.131738 0 0)
(0.131738 0 0)
(0.131738 0 0)
(0.131738 0 0)
(0.131738 0 0)
(0.131738 0 0)
(0.131738 0 0)
(0.131738 0 0)
(0.131738 0 0)
(0.131738 0 0)
(0.131738 0 0)
(0.131738 0 0)
(0.131738 0 0)
(0.131738 0 0)
(0.131738 0 0)
(0.131738 0 0)
(0.131738 0 0)
(0.131738 0 0)
(0.131738 0 0)
(0.131738 0 0)
(0.131738 0 0)
(0.131738 0 0)
(0.131738 0 0)
(0.131738 0 0)
(0.131738 0 0)
(0.131738 0 0)
(0.131738 0 0)
(0.131738 0 0)
(0.131738 0 0)
(0.131738 0 0)
(0.131738 0 0)
(0.131738 0 0)
(0.131738 0 0)
(0.131738 0 0)
(0.131738 0 0)
(0.131738 0 0)
(0.131738 0 0)
(0.131738 0 0)
(0.131738 0 0)
(0.131738 0 0)
(0.131738 0 0)
(0.131738 0 0)
(0.131738 0 0)
(0.131738 0 0)
(0.131738 0 0)
(0.131738 0 0)
(0.131738 0 0)
(0.131738 0 0)
(0.131738 0 0)
(0.131738 0 0)
(0.131738 0 0)
(0.131738 0 0)
(0.131738 0 0)
(0.131738 0 0)
(0.131738 0 0)
(0.131738 0 0)
(0.131738 0 0)
(0.131738 0 0)
(0.131738 0 0)
(0.131738 0 0)
(0.131738 0 0)
(0.131738 0 0)
(0.131738 0 0)
(0.131738 0 0)
(0.131738 0 0)
(0.131738 0 0)
(0.131738 0 0)
(0.131738 0 0)
(0.131738 0 0)
(0.131738 0 0)
(0.131738 0 0)
(0.131738 0 0)
(0.131738 0 0)
(0.131738 0 0)
(0.131738 0 0)
(0.131738 0 0)
(0.131738 0 0)
(0.131738 0 0)
(0.131738 0 0)
(0.131738 0 0)
(0.131738 0 0)
(0.131738 0 0)
(0.131738 0 0)
(0.131738 0 0)
(0.131738 0 0)
(0.131738 0 0)
(0.131738 0 0)
(0.131738 0 0)
(0.131738 0 0)
(0.131738 0 0)
(0.131738 0 0)
(0.131738 0 0)
(0.131738 0 0)
(0.131738 0 0)
(0.131738 0 0)
(0.131738 0 0)
(0.131738 0 0)
(0.131738 0 0)
(0.131738 0 0)
(0.131738 0 0)
(0.131738 0 0)
(0.131738 0 0)
(0.131738 0 0)
(0.131738 0 0)
(0.131738 0 0)
(0.131738 0 0)
(0.131738 0 0)
(0.131738 0 0)
(0.131738 0 0)
(0.131737 0 0)
(0.131739 0 0)
(0.131737 0 0)
(0.131739 0 0)
(0.131737 0 0)
(0.131739 0 0)
(0.131737 0 0)
(0.131739 0 0)
(0.131737 0 0)
(0.131739 0 0)
(0.131737 0 0)
(0.131739 0 0)
(0.131737 0 0)
(0.131739 0 0)
(0.131737 0 0)
(0.131739 0 0)
(0.131736 0 0)
(0.13174 0 0)
(0.131736 0 0)
(0.13174 0 0)
(0.131736 0 0)
(0.13174 0 0)
(0.131736 0 0)
(0.13174 0 0)
(0.131735 0 0)
(0.131741 0 0)
(0.131735 0 0)
(0.131741 0 0)
(0.131735 0 0)
(0.131741 0 0)
(0.131734 0 0)
(0.131742 0 0)
(0.131734 0 0)
(0.131742 0 0)
(0.131733 0 0)
(0.131742 0 0)
(0.131733 0 0)
(0.131743 0 0)
(0.131732 0 0)
(0.131743 0 0)
(0.131732 0 0)
(0.131744 0 0)
(0.131731 0 0)
(0.131744 0 0)
(0.13173 0 0)
(0.131745 0 0)
(0.131729 0 0)
(0.131746 0 0)
(0.131728 0 0)
(0.131746 0 0)
(0.131727 0 0)
(0.131747 0 0)
(0.131726 0 0)
(0.131748 0 0)
(0.131725 0 0)
(0.131749 0 0)
(0.131724 0 0)
(0.131749 0 0)
(0.131723 0 0)
(0.13175 0 0)
(0.131722 0 0)
(0.131751 0 0)
(0.13172 0 0)
(0.131752 0 0)
(0.131719 0 0)
(0.131753 0 0)
(0.131717 0 0)
(0.131754 0 0)
(0.131715 0 0)
(0.131755 0 0)
(0.131714 0 0)
(0.131756 0 0)
(0.131712 0 0)
(0.131757 0 0)
(0.13171 0 0)
(0.131758 0 0)
(0.131708 0 0)
(0.131759 0 0)
(0.131706 0 0)
(0.13176 0 0)
(0.131703 0 0)
(0.131761 0 0)
(0.131701 0 0)
)
;

boundaryField
{
    topWall
    {
        type            empty;
    }
    bottomWall
    {
        type            empty;
    }
    leftAndRight_half1
    {
        type            cyclic;
    }
    leftAndRight_half0
    {
        type            cyclic;
    }
    frontAndBack
    {
        type            empty;
    }
}


// ************************************************************************* //
