/*--------------------------------*- C++ -*----------------------------------*\
  =========                 |
  \\      /  F ield         | OpenFOAM: The Open Source CFD Toolbox
   \\    /   O peration     | Website:  https://openfoam.org
    \\  /    A nd           | Version:  9
     \\/     M anipulation  |
\*---------------------------------------------------------------------------*/
FoamFile
{
    format      ascii;
    class       volVectorField;
    location    "4.8";
    object      U;
}
// * * * * * * * * * * * * * * * * * * * * * * * * * * * * * * * * * * * * * //

dimensions      [0 1 -1 0 0 0 0];

internalField   nonuniform List<vector> 
1000
(
(0.13177 0 0)
(0.131695 0 0)
(0.13177 0 0)
(0.131694 0 0)
(0.131771 0 0)
(0.131694 0 0)
(0.131771 0 0)
(0.131693 0 0)
(0.131772 0 0)
(0.131693 0 0)
(0.131772 0 0)
(0.131693 0 0)
(0.131773 0 0)
(0.131693 0 0)
(0.131774 0 0)
(0.131693 0 0)
(0.131774 0 0)
(0.131693 0 0)
(0.131775 0 0)
(0.131693 0 0)
(0.131776 0 0)
(0.131693 0 0)
(0.131776 0 0)
(0.131694 0 0)
(0.131777 0 0)
(0.131695 0 0)
(0.131778 0 0)
(0.131696 0 0)
(0.131779 0 0)
(0.131697 0 0)
(0.13178 0 0)
(0.131699 0 0)
(0.131782 0 0)
(0.131701 0 0)
(0.131783 0 0)
(0.131703 0 0)
(0.131785 0 0)
(0.131705 0 0)
(0.131787 0 0)
(0.131708 0 0)
(0.131789 0 0)
(0.131711 0 0)
(0.131791 0 0)
(0.131715 0 0)
(0.131794 0 0)
(0.131719 0 0)
(0.131797 0 0)
(0.131723 0 0)
(0.131801 0 0)
(0.131728 0 0)
(0.131805 0 0)
(0.131733 0 0)
(0.131809 0 0)
(0.131739 0 0)
(0.131813 0 0)
(0.131746 0 0)
(0.131819 0 0)
(0.131753 0 0)
(0.131824 0 0)
(0.13176 0 0)
(0.131831 0 0)
(0.131769 0 0)
(0.131838 0 0)
(0.131778 0 0)
(0.131845 0 0)
(0.131788 0 0)
(0.131854 0 0)
(0.131798 0 0)
(0.131863 0 0)
(0.13181 0 0)
(0.131873 0 0)
(0.131822 0 0)
(0.131884 0 0)
(0.131836 0 0)
(0.131895 0 0)
(0.13185 0 0)
(0.131908 0 0)
(0.131865 0 0)
(0.131922 0 0)
(0.131881 0 0)
(0.131937 0 0)
(0.131899 0 0)
(0.131953 0 0)
(0.131916 0 0)
(0.131972 0 0)
(0.131932 0 0)
(0.131997 0 0)
(0.131943 0 0)
(0.132033 0 0)
(0.131943 0 0)
(0.132088 0 0)
(0.131926 0 0)
(0.132166 0 0)
(0.131903 0 0)
(0.132253 0 0)
(0.131911 0 0)
(0.132315 0 0)
(0.132001 0 0)
(0.132344 0 0)
(0.132165 0 0)
(0.132396 0 0)
(0.132332 0 0)
(0.132496 0 0)
(0.13247 0 0)
(0.132608 0 0)
(0.132581 0 0)
(0.132702 0 0)
(0.132665 0 0)
(0.13277 0 0)
(0.132725 0 0)
(0.132816 0 0)
(0.132766 0 0)
(0.132846 0 0)
(0.132795 0 0)
(0.132868 0 0)
(0.132818 0 0)
(0.132886 0 0)
(0.132839 0 0)
(0.132902 0 0)
(0.132859 0 0)
(0.132919 0 0)
(0.132879 0 0)
(0.132936 0 0)
(0.1329 0 0)
(0.132954 0 0)
(0.132921 0 0)
(0.132972 0 0)
(0.132943 0 0)
(0.132992 0 0)
(0.132965 0 0)
(0.133012 0 0)
(0.132988 0 0)
(0.133033 0 0)
(0.133012 0 0)
(0.133054 0 0)
(0.133036 0 0)
(0.133076 0 0)
(0.133061 0 0)
(0.133099 0 0)
(0.133086 0 0)
(0.133122 0 0)
(0.133111 0 0)
(0.133146 0 0)
(0.133137 0 0)
(0.13317 0 0)
(0.133163 0 0)
(0.133195 0 0)
(0.13319 0 0)
(0.13322 0 0)
(0.133216 0 0)
(0.133245 0 0)
(0.133243 0 0)
(0.13327 0 0)
(0.133269 0 0)
(0.133295 0 0)
(0.133296 0 0)
(0.133321 0 0)
(0.133323 0 0)
(0.133346 0 0)
(0.133349 0 0)
(0.133372 0 0)
(0.133375 0 0)
(0.133397 0 0)
(0.133401 0 0)
(0.133422 0 0)
(0.133427 0 0)
(0.133446 0 0)
(0.133452 0 0)
(0.13347 0 0)
(0.133476 0 0)
(0.133494 0 0)
(0.1335 0 0)
(0.133516 0 0)
(0.133523 0 0)
(0.133539 0 0)
(0.133546 0 0)
(0.13356 0 0)
(0.133567 0 0)
(0.13358 0 0)
(0.133587 0 0)
(0.1336 0 0)
(0.133607 0 0)
(0.133618 0 0)
(0.133625 0 0)
(0.133635 0 0)
(0.133642 0 0)
(0.13365 0 0)
(0.133659 0 0)
(0.133663 0 0)
(0.133674 0 0)
(0.133675 0 0)
(0.133688 0 0)
(0.133685 0 0)
(0.133698 0 0)
(0.133696 0 0)
(0.133707 0 0)
(0.133708 0 0)
(0.133716 0 0)
(0.13372 0 0)
(0.13373 0 0)
(0.133738 0 0)
(0.13375 0 0)
(0.133755 0 0)
(0.133752 0 0)
(0.133724 0 0)
(0.133673 0 0)
(0.133595 0 0)
(0.133508 0 0)
(0.133418 0 0)
(0.133344 0 0)
(0.133283 0 0)
(0.133244 0 0)
(0.133217 0 0)
(0.133204 0 0)
(0.133196 0 0)
(0.133195 0 0)
(0.133194 0 0)
(0.133198 0 0)
(0.1332 0 0)
(0.133204 0 0)
(0.133206 0 0)
(0.133211 0 0)
(0.133212 0 0)
(0.133216 0 0)
(0.133216 0 0)
(0.133219 0 0)
(0.133219 0 0)
(0.133221 0 0)
(0.13322 0 0)
(0.133221 0 0)
(0.13322 0 0)
(0.13322 0 0)
(0.133218 0 0)
(0.133218 0 0)
(0.133215 0 0)
(0.133214 0 0)
(0.13321 0 0)
(0.133208 0 0)
(0.133204 0 0)
(0.133201 0 0)
(0.133196 0 0)
(0.133192 0 0)
(0.133187 0 0)
(0.133182 0 0)
(0.133176 0 0)
(0.133171 0 0)
(0.133164 0 0)
(0.133158 0 0)
(0.133151 0 0)
(0.133144 0 0)
(0.133136 0 0)
(0.133129 0 0)
(0.13312 0 0)
(0.133113 0 0)
(0.133103 0 0)
(0.133095 0 0)
(0.133085 0 0)
(0.133076 0 0)
(0.133066 0 0)
(0.133056 0 0)
(0.133046 0 0)
(0.133036 0 0)
(0.133025 0 0)
(0.133014 0 0)
(0.133002 0 0)
(0.132991 0 0)
(0.132979 0 0)
(0.132968 0 0)
(0.132956 0 0)
(0.132944 0 0)
(0.132931 0 0)
(0.132919 0 0)
(0.132906 0 0)
(0.132893 0 0)
(0.13288 0 0)
(0.132867 0 0)
(0.132854 0 0)
(0.132841 0 0)
(0.132827 0 0)
(0.132814 0 0)
(0.1328 0 0)
(0.132786 0 0)
(0.132772 0 0)
(0.132758 0 0)
(0.132744 0 0)
(0.13273 0 0)
(0.132716 0 0)
(0.132702 0 0)
(0.132688 0 0)
(0.132674 0 0)
(0.13266 0 0)
(0.132646 0 0)
(0.132631 0 0)
(0.132617 0 0)
(0.132603 0 0)
(0.132589 0 0)
(0.132575 0 0)
(0.132561 0 0)
(0.132547 0 0)
(0.132533 0 0)
(0.132519 0 0)
(0.132505 0 0)
(0.132491 0 0)
(0.132477 0 0)
(0.132463 0 0)
(0.13245 0 0)
(0.132436 0 0)
(0.132423 0 0)
(0.132409 0 0)
(0.132396 0 0)
(0.132383 0 0)
(0.13237 0 0)
(0.132357 0 0)
(0.132344 0 0)
(0.132331 0 0)
(0.132318 0 0)
(0.132306 0 0)
(0.132294 0 0)
(0.132281 0 0)
(0.132269 0 0)
(0.132257 0 0)
(0.132245 0 0)
(0.132234 0 0)
(0.132222 0 0)
(0.132211 0 0)
(0.1322 0 0)
(0.132188 0 0)
(0.132178 0 0)
(0.132167 0 0)
(0.132156 0 0)
(0.132146 0 0)
(0.132135 0 0)
(0.132125 0 0)
(0.132115 0 0)
(0.132106 0 0)
(0.132096 0 0)
(0.132086 0 0)
(0.132077 0 0)
(0.132068 0 0)
(0.132059 0 0)
(0.13205 0 0)
(0.132041 0 0)
(0.132033 0 0)
(0.132025 0 0)
(0.132016 0 0)
(0.132008 0 0)
(0.132001 0 0)
(0.131993 0 0)
(0.131985 0 0)
(0.131978 0 0)
(0.131971 0 0)
(0.131964 0 0)
(0.131957 0 0)
(0.13195 0 0)
(0.131944 0 0)
(0.131937 0 0)
(0.131931 0 0)
(0.131925 0 0)
(0.131919 0 0)
(0.131913 0 0)
(0.131907 0 0)
(0.131902 0 0)
(0.131896 0 0)
(0.131891 0 0)
(0.131886 0 0)
(0.131881 0 0)
(0.131876 0 0)
(0.131871 0 0)
(0.131867 0 0)
(0.131862 0 0)
(0.131858 0 0)
(0.131854 0 0)
(0.13185 0 0)
(0.131846 0 0)
(0.131842 0 0)
(0.131838 0 0)
(0.131834 0 0)
(0.131831 0 0)
(0.131827 0 0)
(0.131824 0 0)
(0.131821 0 0)
(0.131818 0 0)
(0.131815 0 0)
(0.131812 0 0)
(0.131809 0 0)
(0.131806 0 0)
(0.131803 0 0)
(0.131801 0 0)
(0.131798 0 0)
(0.131796 0 0)
(0.131794 0 0)
(0.131791 0 0)
(0.131789 0 0)
(0.131787 0 0)
(0.131785 0 0)
(0.131783 0 0)
(0.131781 0 0)
(0.131779 0 0)
(0.131778 0 0)
(0.131776 0 0)
(0.131774 0 0)
(0.131773 0 0)
(0.131771 0 0)
(0.13177 0 0)
(0.131768 0 0)
(0.131767 0 0)
(0.131766 0 0)
(0.131765 0 0)
(0.131763 0 0)
(0.131762 0 0)
(0.131761 0 0)
(0.13176 0 0)
(0.131759 0 0)
(0.131758 0 0)
(0.131757 0 0)
(0.131756 0 0)
(0.131755 0 0)
(0.131755 0 0)
(0.131754 0 0)
(0.131753 0 0)
(0.131752 0 0)
(0.131752 0 0)
(0.131751 0 0)
(0.13175 0 0)
(0.13175 0 0)
(0.131749 0 0)
(0.131749 0 0)
(0.131748 0 0)
(0.131748 0 0)
(0.131747 0 0)
(0.131747 0 0)
(0.131746 0 0)
(0.131746 0 0)
(0.131745 0 0)
(0.131745 0 0)
(0.131745 0 0)
(0.131744 0 0)
(0.131744 0 0)
(0.131744 0 0)
(0.131743 0 0)
(0.131743 0 0)
(0.131743 0 0)
(0.131743 0 0)
(0.131742 0 0)
(0.131742 0 0)
(0.131742 0 0)
(0.131742 0 0)
(0.131741 0 0)
(0.131741 0 0)
(0.131741 0 0)
(0.131741 0 0)
(0.131741 0 0)
(0.131741 0 0)
(0.13174 0 0)
(0.13174 0 0)
(0.13174 0 0)
(0.13174 0 0)
(0.13174 0 0)
(0.13174 0 0)
(0.13174 0 0)
(0.13174 0 0)
(0.13174 0 0)
(0.131739 0 0)
(0.131739 0 0)
(0.131739 0 0)
(0.131739 0 0)
(0.131739 0 0)
(0.131739 0 0)
(0.131739 0 0)
(0.131739 0 0)
(0.131739 0 0)
(0.131739 0 0)
(0.131739 0 0)
(0.131739 0 0)
(0.131739 0 0)
(0.131739 0 0)
(0.131739 0 0)
(0.131739 0 0)
(0.131739 0 0)
(0.131738 0 0)
(0.131738 0 0)
(0.131738 0 0)
(0.131738 0 0)
(0.131738 0 0)
(0.131738 0 0)
(0.131738 0 0)
(0.131738 0 0)
(0.131738 0 0)
(0.131738 0 0)
(0.131738 0 0)
(0.131738 0 0)
(0.131738 0 0)
(0.131738 0 0)
(0.131738 0 0)
(0.131738 0 0)
(0.131738 0 0)
(0.131738 0 0)
(0.131738 0 0)
(0.131738 0 0)
(0.131738 0 0)
(0.131738 0 0)
(0.131738 0 0)
(0.131738 0 0)
(0.131738 0 0)
(0.131738 0 0)
(0.131738 0 0)
(0.131738 0 0)
(0.131738 0 0)
(0.131738 0 0)
(0.131738 0 0)
(0.131738 0 0)
(0.131738 0 0)
(0.131738 0 0)
(0.131738 0 0)
(0.131738 0 0)
(0.131738 0 0)
(0.131738 0 0)
(0.131738 0 0)
(0.131738 0 0)
(0.131738 0 0)
(0.131738 0 0)
(0.131738 0 0)
(0.131738 0 0)
(0.131738 0 0)
(0.131738 0 0)
(0.131738 0 0)
(0.131738 0 0)
(0.131738 0 0)
(0.131738 0 0)
(0.131738 0 0)
(0.131738 0 0)
(0.131738 0 0)
(0.131738 0 0)
(0.131738 0 0)
(0.131738 0 0)
(0.131738 0 0)
(0.131738 0 0)
(0.131738 0 0)
(0.131738 0 0)
(0.131738 0 0)
(0.131738 0 0)
(0.131738 0 0)
(0.131738 0 0)
(0.131738 0 0)
(0.131738 0 0)
(0.131738 0 0)
(0.131738 0 0)
(0.131738 0 0)
(0.131738 0 0)
(0.131738 0 0)
(0.131738 0 0)
(0.131738 0 0)
(0.131738 0 0)
(0.131738 0 0)
(0.131738 0 0)
(0.131738 0 0)
(0.131738 0 0)
(0.131738 0 0)
(0.131738 0 0)
(0.131738 0 0)
(0.131738 0 0)
(0.131738 0 0)
(0.131738 0 0)
(0.131738 0 0)
(0.131738 0 0)
(0.131738 0 0)
(0.131738 0 0)
(0.131738 0 0)
(0.131738 0 0)
(0.131738 0 0)
(0.131738 0 0)
(0.131738 0 0)
(0.131738 0 0)
(0.131738 0 0)
(0.131738 0 0)
(0.131738 0 0)
(0.131738 0 0)
(0.131738 0 0)
(0.131738 0 0)
(0.131738 0 0)
(0.131738 0 0)
(0.131738 0 0)
(0.131738 0 0)
(0.131738 0 0)
(0.131738 0 0)
(0.131738 0 0)
(0.131738 0 0)
(0.131738 0 0)
(0.131738 0 0)
(0.131738 0 0)
(0.131738 0 0)
(0.131738 0 0)
(0.131738 0 0)
(0.131738 0 0)
(0.131738 0 0)
(0.131738 0 0)
(0.131738 0 0)
(0.131738 0 0)
(0.131738 0 0)
(0.131738 0 0)
(0.131738 0 0)
(0.131738 0 0)
(0.131738 0 0)
(0.131738 0 0)
(0.131738 0 0)
(0.131738 0 0)
(0.131738 0 0)
(0.131738 0 0)
(0.131738 0 0)
(0.131738 0 0)
(0.131738 0 0)
(0.131738 0 0)
(0.131738 0 0)
(0.131738 0 0)
(0.131738 0 0)
(0.131738 0 0)
(0.131738 0 0)
(0.131738 0 0)
(0.131738 0 0)
(0.131738 0 0)
(0.131738 0 0)
(0.131738 0 0)
(0.131738 0 0)
(0.131738 0 0)
(0.131738 0 0)
(0.131738 0 0)
(0.131738 0 0)
(0.131738 0 0)
(0.131738 0 0)
(0.131738 0 0)
(0.131738 0 0)
(0.131738 0 0)
(0.131738 0 0)
(0.131738 0 0)
(0.131738 0 0)
(0.131738 0 0)
(0.131738 0 0)
(0.131738 0 0)
(0.131738 0 0)
(0.131738 0 0)
(0.131738 0 0)
(0.131738 0 0)
(0.131738 0 0)
(0.131738 0 0)
(0.131738 0 0)
(0.131738 0 0)
(0.131738 0 0)
(0.131738 0 0)
(0.131738 0 0)
(0.131738 0 0)
(0.131738 0 0)
(0.131738 0 0)
(0.131738 0 0)
(0.131738 0 0)
(0.131738 0 0)
(0.131738 0 0)
(0.131738 0 0)
(0.131738 0 0)
(0.131738 0 0)
(0.131738 0 0)
(0.131738 0 0)
(0.131738 0 0)
(0.131738 0 0)
(0.131738 0 0)
(0.131738 0 0)
(0.131738 0 0)
(0.131738 0 0)
(0.131738 0 0)
(0.131738 0 0)
(0.131738 0 0)
(0.131738 0 0)
(0.131738 0 0)
(0.131738 0 0)
(0.131738 0 0)
(0.131738 0 0)
(0.131738 0 0)
(0.131738 0 0)
(0.131738 0 0)
(0.131738 0 0)
(0.131738 0 0)
(0.131738 0 0)
(0.131738 0 0)
(0.131738 0 0)
(0.131738 0 0)
(0.131738 0 0)
(0.131738 0 0)
(0.131738 0 0)
(0.131738 0 0)
(0.131738 0 0)
(0.131738 0 0)
(0.131738 0 0)
(0.131738 0 0)
(0.131738 0 0)
(0.131738 0 0)
(0.131738 0 0)
(0.131738 0 0)
(0.131738 0 0)
(0.131738 0 0)
(0.131738 0 0)
(0.131738 0 0)
(0.131738 0 0)
(0.131738 0 0)
(0.131738 0 0)
(0.131738 0 0)
(0.131738 0 0)
(0.131738 0 0)
(0.131738 0 0)
(0.131738 0 0)
(0.131738 0 0)
(0.131738 0 0)
(0.131738 0 0)
(0.131738 0 0)
(0.131738 0 0)
(0.131738 0 0)
(0.131738 0 0)
(0.131738 0 0)
(0.131738 0 0)
(0.131738 0 0)
(0.131738 0 0)
(0.131738 0 0)
(0.131738 0 0)
(0.131738 0 0)
(0.131738 0 0)
(0.131738 0 0)
(0.131738 0 0)
(0.131738 0 0)
(0.131738 0 0)
(0.131738 0 0)
(0.131738 0 0)
(0.131738 0 0)
(0.131738 0 0)
(0.131738 0 0)
(0.131738 0 0)
(0.131738 0 0)
(0.131738 0 0)
(0.131738 0 0)
(0.131738 0 0)
(0.131738 0 0)
(0.131738 0 0)
(0.131738 0 0)
(0.131738 0 0)
(0.131738 0 0)
(0.131738 0 0)
(0.131738 0 0)
(0.131738 0 0)
(0.131738 0 0)
(0.131738 0 0)
(0.131738 0 0)
(0.131738 0 0)
(0.131738 0 0)
(0.131738 0 0)
(0.131738 0 0)
(0.131738 0 0)
(0.131738 0 0)
(0.131738 0 0)
(0.131738 0 0)
(0.131738 0 0)
(0.131738 0 0)
(0.131738 0 0)
(0.131738 0 0)
(0.131738 0 0)
(0.131738 0 0)
(0.131738 0 0)
(0.131738 0 0)
(0.131738 0 0)
(0.131738 0 0)
(0.131738 0 0)
(0.131738 0 0)
(0.131738 0 0)
(0.131738 0 0)
(0.131738 0 0)
(0.131738 0 0)
(0.131738 0 0)
(0.131738 0 0)
(0.131738 0 0)
(0.131738 0 0)
(0.131738 0 0)
(0.131738 0 0)
(0.131738 0 0)
(0.131738 0 0)
(0.131738 0 0)
(0.131738 0 0)
(0.131738 0 0)
(0.131738 0 0)
(0.131738 0 0)
(0.131738 0 0)
(0.131738 0 0)
(0.131738 0 0)
(0.131738 0 0)
(0.131738 0 0)
(0.131738 0 0)
(0.131738 0 0)
(0.131738 0 0)
(0.131738 0 0)
(0.131738 0 0)
(0.131738 0 0)
(0.131738 0 0)
(0.131738 0 0)
(0.131738 0 0)
(0.131738 0 0)
(0.131738 0 0)
(0.131738 0 0)
(0.131738 0 0)
(0.131738 0 0)
(0.131738 0 0)
(0.131738 0 0)
(0.131738 0 0)
(0.131738 0 0)
(0.131738 0 0)
(0.131738 0 0)
(0.131738 0 0)
(0.131738 0 0)
(0.131738 0 0)
(0.131738 0 0)
(0.131738 0 0)
(0.131738 0 0)
(0.131738 0 0)
(0.131738 0 0)
(0.131738 0 0)
(0.131738 0 0)
(0.131738 0 0)
(0.131738 0 0)
(0.131738 0 0)
(0.131738 0 0)
(0.131738 0 0)
(0.131738 0 0)
(0.131738 0 0)
(0.131738 0 0)
(0.131738 0 0)
(0.131738 0 0)
(0.131738 0 0)
(0.131738 0 0)
(0.131738 0 0)
(0.131738 0 0)
(0.131738 0 0)
(0.131738 0 0)
(0.131738 0 0)
(0.131738 0 0)
(0.131738 0 0)
(0.131738 0 0)
(0.131738 0 0)
(0.131738 0 0)
(0.131738 0 0)
(0.131738 0 0)
(0.131738 0 0)
(0.131738 0 0)
(0.131738 0 0)
(0.131738 0 0)
(0.131738 0 0)
(0.131738 0 0)
(0.131738 0 0)
(0.131738 0 0)
(0.131738 0 0)
(0.131738 0 0)
(0.131738 0 0)
(0.131738 0 0)
(0.131738 0 0)
(0.131737 0 0)
(0.131739 0 0)
(0.131737 0 0)
(0.131739 0 0)
(0.131737 0 0)
(0.131739 0 0)
(0.131737 0 0)
(0.131739 0 0)
(0.131737 0 0)
(0.131739 0 0)
(0.131737 0 0)
(0.131739 0 0)
(0.131737 0 0)
(0.131739 0 0)
(0.131737 0 0)
(0.131739 0 0)
(0.131737 0 0)
(0.131739 0 0)
(0.131737 0 0)
(0.131739 0 0)
(0.131737 0 0)
(0.131739 0 0)
(0.131737 0 0)
(0.131739 0 0)
(0.131736 0 0)
(0.13174 0 0)
(0.131736 0 0)
(0.13174 0 0)
(0.131736 0 0)
(0.13174 0 0)
(0.131736 0 0)
(0.13174 0 0)
(0.131736 0 0)
(0.13174 0 0)
(0.131736 0 0)
(0.13174 0 0)
(0.131735 0 0)
(0.131741 0 0)
(0.131735 0 0)
(0.131741 0 0)
(0.131735 0 0)
(0.131741 0 0)
(0.131735 0 0)
(0.131741 0 0)
(0.131734 0 0)
(0.131742 0 0)
(0.131734 0 0)
(0.131742 0 0)
(0.131734 0 0)
(0.131742 0 0)
(0.131733 0 0)
(0.131743 0 0)
(0.131733 0 0)
(0.131743 0 0)
(0.131733 0 0)
(0.131743 0 0)
(0.131732 0 0)
(0.131744 0 0)
(0.131732 0 0)
(0.131744 0 0)
(0.131731 0 0)
(0.131744 0 0)
(0.131731 0 0)
(0.131745 0 0)
(0.13173 0 0)
(0.131745 0 0)
(0.13173 0 0)
(0.131746 0 0)
(0.131729 0 0)
(0.131746 0 0)
(0.131729 0 0)
(0.131747 0 0)
(0.131728 0 0)
(0.131747 0 0)
(0.131728 0 0)
(0.131748 0 0)
(0.131727 0 0)
(0.131748 0 0)
(0.131726 0 0)
(0.131749 0 0)
(0.131725 0 0)
(0.13175 0 0)
(0.131725 0 0)
(0.13175 0 0)
(0.131724 0 0)
(0.131751 0 0)
(0.131723 0 0)
(0.131752 0 0)
(0.131722 0 0)
(0.131752 0 0)
(0.131722 0 0)
(0.131753 0 0)
(0.131721 0 0)
(0.131754 0 0)
(0.13172 0 0)
(0.131754 0 0)
(0.131719 0 0)
(0.131755 0 0)
(0.131718 0 0)
(0.131756 0 0)
(0.131717 0 0)
(0.131756 0 0)
(0.131716 0 0)
(0.131757 0 0)
(0.131715 0 0)
(0.131758 0 0)
(0.131714 0 0)
(0.131759 0 0)
(0.131713 0 0)
(0.131759 0 0)
(0.131712 0 0)
(0.13176 0 0)
(0.131711 0 0)
(0.131761 0 0)
(0.13171 0 0)
(0.131761 0 0)
(0.131709 0 0)
(0.131762 0 0)
(0.131708 0 0)
(0.131763 0 0)
(0.131707 0 0)
(0.131763 0 0)
(0.131705 0 0)
(0.131764 0 0)
(0.131704 0 0)
(0.131765 0 0)
(0.131703 0 0)
(0.131765 0 0)
(0.131702 0 0)
(0.131766 0 0)
(0.131701 0 0)
(0.131767 0 0)
(0.1317 0 0)
(0.131767 0 0)
(0.131699 0 0)
(0.131768 0 0)
(0.131698 0 0)
(0.131768 0 0)
(0.131697 0 0)
(0.131769 0 0)
(0.131697 0 0)
(0.131769 0 0)
(0.131696 0 0)
)
;

boundaryField
{
    topWall
    {
        type            empty;
    }
    bottomWall
    {
        type            empty;
    }
    leftAndRight_half1
    {
        type            cyclic;
    }
    leftAndRight_half0
    {
        type            cyclic;
    }
    frontAndBack
    {
        type            empty;
    }
}


// ************************************************************************* //
