/*--------------------------------*- C++ -*----------------------------------*\
  =========                 |
  \\      /  F ield         | OpenFOAM: The Open Source CFD Toolbox
   \\    /   O peration     | Website:  https://openfoam.org
    \\  /    A nd           | Version:  9
     \\/     M anipulation  |
\*---------------------------------------------------------------------------*/
FoamFile
{
    format      ascii;
    class       volVectorField;
    location    "2.95";
    object      U;
}
// * * * * * * * * * * * * * * * * * * * * * * * * * * * * * * * * * * * * * //

dimensions      [0 1 -1 0 0 0 0];

internalField   nonuniform List<vector> 
1000
(
(0.131763 0 0)
(0.131697 0 0)
(0.131764 0 0)
(0.131694 0 0)
(0.131765 0 0)
(0.131692 0 0)
(0.131765 0 0)
(0.131689 0 0)
(0.131766 0 0)
(0.131687 0 0)
(0.131767 0 0)
(0.131684 0 0)
(0.131767 0 0)
(0.131682 0 0)
(0.131767 0 0)
(0.131679 0 0)
(0.131768 0 0)
(0.131677 0 0)
(0.131768 0 0)
(0.131674 0 0)
(0.131768 0 0)
(0.131672 0 0)
(0.131768 0 0)
(0.13167 0 0)
(0.131768 0 0)
(0.131667 0 0)
(0.131768 0 0)
(0.131665 0 0)
(0.131768 0 0)
(0.131663 0 0)
(0.131768 0 0)
(0.131661 0 0)
(0.131768 0 0)
(0.131659 0 0)
(0.131768 0 0)
(0.131658 0 0)
(0.131767 0 0)
(0.131656 0 0)
(0.131767 0 0)
(0.131655 0 0)
(0.131767 0 0)
(0.131655 0 0)
(0.131767 0 0)
(0.131654 0 0)
(0.131767 0 0)
(0.131654 0 0)
(0.131767 0 0)
(0.131655 0 0)
(0.131767 0 0)
(0.131655 0 0)
(0.131768 0 0)
(0.131657 0 0)
(0.131769 0 0)
(0.131659 0 0)
(0.13177 0 0)
(0.131661 0 0)
(0.131772 0 0)
(0.131665 0 0)
(0.131774 0 0)
(0.131669 0 0)
(0.131776 0 0)
(0.131674 0 0)
(0.13178 0 0)
(0.13168 0 0)
(0.131784 0 0)
(0.131686 0 0)
(0.131788 0 0)
(0.131694 0 0)
(0.131794 0 0)
(0.131703 0 0)
(0.131801 0 0)
(0.131713 0 0)
(0.131808 0 0)
(0.131724 0 0)
(0.131817 0 0)
(0.131737 0 0)
(0.131827 0 0)
(0.131751 0 0)
(0.131838 0 0)
(0.131766 0 0)
(0.131851 0 0)
(0.131783 0 0)
(0.131866 0 0)
(0.131801 0 0)
(0.131884 0 0)
(0.131818 0 0)
(0.131908 0 0)
(0.13183 0 0)
(0.131944 0 0)
(0.131832 0 0)
(0.131999 0 0)
(0.131818 0 0)
(0.132078 0 0)
(0.131797 0 0)
(0.132167 0 0)
(0.13181 0 0)
(0.132232 0 0)
(0.131904 0 0)
(0.132264 0 0)
(0.132074 0 0)
(0.13232 0 0)
(0.132247 0 0)
(0.132424 0 0)
(0.132391 0 0)
(0.132542 0 0)
(0.13251 0 0)
(0.132643 0 0)
(0.132603 0 0)
(0.132719 0 0)
(0.132672 0 0)
(0.132772 0 0)
(0.132723 0 0)
(0.132812 0 0)
(0.132763 0 0)
(0.132843 0 0)
(0.132798 0 0)
(0.132872 0 0)
(0.132831 0 0)
(0.1329 0 0)
(0.132864 0 0)
(0.132929 0 0)
(0.132898 0 0)
(0.132959 0 0)
(0.132933 0 0)
(0.132991 0 0)
(0.13297 0 0)
(0.133024 0 0)
(0.133008 0 0)
(0.133059 0 0)
(0.133046 0 0)
(0.133095 0 0)
(0.133086 0 0)
(0.133132 0 0)
(0.133127 0 0)
(0.13317 0 0)
(0.133169 0 0)
(0.13321 0 0)
(0.133212 0 0)
(0.13325 0 0)
(0.133255 0 0)
(0.133292 0 0)
(0.133299 0 0)
(0.133334 0 0)
(0.133343 0 0)
(0.133377 0 0)
(0.133388 0 0)
(0.13342 0 0)
(0.133433 0 0)
(0.133463 0 0)
(0.133478 0 0)
(0.133507 0 0)
(0.133523 0 0)
(0.13355 0 0)
(0.133568 0 0)
(0.133594 0 0)
(0.133612 0 0)
(0.133637 0 0)
(0.133656 0 0)
(0.133679 0 0)
(0.133699 0 0)
(0.133721 0 0)
(0.133741 0 0)
(0.133762 0 0)
(0.133783 0 0)
(0.133803 0 0)
(0.133823 0 0)
(0.133842 0 0)
(0.133862 0 0)
(0.13388 0 0)
(0.1339 0 0)
(0.133916 0 0)
(0.133935 0 0)
(0.133951 0 0)
(0.13397 0 0)
(0.133984 0 0)
(0.134002 0 0)
(0.134015 0 0)
(0.134032 0 0)
(0.134044 0 0)
(0.13406 0 0)
(0.134071 0 0)
(0.134086 0 0)
(0.134095 0 0)
(0.13411 0 0)
(0.134117 0 0)
(0.134131 0 0)
(0.134136 0 0)
(0.13415 0 0)
(0.134151 0 0)
(0.134167 0 0)
(0.134164 0 0)
(0.13418 0 0)
(0.134174 0 0)
(0.134189 0 0)
(0.134183 0 0)
(0.134195 0 0)
(0.134191 0 0)
(0.134199 0 0)
(0.134198 0 0)
(0.134208 0 0)
(0.13421 0 0)
(0.134221 0 0)
(0.13422 0 0)
(0.134214 0 0)
(0.13418 0 0)
(0.134126 0 0)
(0.13404 0 0)
(0.13395 0 0)
(0.133852 0 0)
(0.133773 0 0)
(0.133704 0 0)
(0.133659 0 0)
(0.133623 0 0)
(0.133604 0 0)
(0.133586 0 0)
(0.133579 0 0)
(0.133569 0 0)
(0.133564 0 0)
(0.133556 0 0)
(0.133552 0 0)
(0.133544 0 0)
(0.133539 0 0)
(0.13353 0 0)
(0.133524 0 0)
(0.133513 0 0)
(0.133506 0 0)
(0.133495 0 0)
(0.133486 0 0)
(0.133474 0 0)
(0.133464 0 0)
(0.133451 0 0)
(0.133439 0 0)
(0.133425 0 0)
(0.133413 0 0)
(0.133398 0 0)
(0.133385 0 0)
(0.133369 0 0)
(0.133355 0 0)
(0.133338 0 0)
(0.133323 0 0)
(0.133305 0 0)
(0.133289 0 0)
(0.133271 0 0)
(0.133254 0 0)
(0.133236 0 0)
(0.133218 0 0)
(0.133199 0 0)
(0.13318 0 0)
(0.13316 0 0)
(0.133141 0 0)
(0.133121 0 0)
(0.133102 0 0)
(0.133081 0 0)
(0.133061 0 0)
(0.13304 0 0)
(0.13302 0 0)
(0.132999 0 0)
(0.132978 0 0)
(0.132957 0 0)
(0.132936 0 0)
(0.132915 0 0)
(0.132894 0 0)
(0.132872 0 0)
(0.132851 0 0)
(0.13283 0 0)
(0.132808 0 0)
(0.132787 0 0)
(0.132766 0 0)
(0.132744 0 0)
(0.132723 0 0)
(0.132702 0 0)
(0.132681 0 0)
(0.13266 0 0)
(0.13264 0 0)
(0.132619 0 0)
(0.132598 0 0)
(0.132578 0 0)
(0.132558 0 0)
(0.132538 0 0)
(0.132518 0 0)
(0.132498 0 0)
(0.132479 0 0)
(0.132459 0 0)
(0.13244 0 0)
(0.132422 0 0)
(0.132403 0 0)
(0.132385 0 0)
(0.132367 0 0)
(0.132349 0 0)
(0.132332 0 0)
(0.132314 0 0)
(0.132297 0 0)
(0.132281 0 0)
(0.132264 0 0)
(0.132248 0 0)
(0.132232 0 0)
(0.132217 0 0)
(0.132201 0 0)
(0.132187 0 0)
(0.132172 0 0)
(0.132158 0 0)
(0.132144 0 0)
(0.13213 0 0)
(0.132117 0 0)
(0.132103 0 0)
(0.132091 0 0)
(0.132078 0 0)
(0.132066 0 0)
(0.132054 0 0)
(0.132043 0 0)
(0.132031 0 0)
(0.13202 0 0)
(0.13201 0 0)
(0.131999 0 0)
(0.131989 0 0)
(0.131979 0 0)
(0.13197 0 0)
(0.131961 0 0)
(0.131952 0 0)
(0.131943 0 0)
(0.131935 0 0)
(0.131926 0 0)
(0.131919 0 0)
(0.131911 0 0)
(0.131904 0 0)
(0.131896 0 0)
(0.13189 0 0)
(0.131883 0 0)
(0.131877 0 0)
(0.13187 0 0)
(0.131864 0 0)
(0.131859 0 0)
(0.131853 0 0)
(0.131848 0 0)
(0.131843 0 0)
(0.131838 0 0)
(0.131833 0 0)
(0.131828 0 0)
(0.131824 0 0)
(0.13182 0 0)
(0.131816 0 0)
(0.131812 0 0)
(0.131808 0 0)
(0.131805 0 0)
(0.131801 0 0)
(0.131798 0 0)
(0.131795 0 0)
(0.131792 0 0)
(0.131789 0 0)
(0.131786 0 0)
(0.131784 0 0)
(0.131781 0 0)
(0.131779 0 0)
(0.131777 0 0)
(0.131775 0 0)
(0.131773 0 0)
(0.131771 0 0)
(0.131769 0 0)
(0.131767 0 0)
(0.131765 0 0)
(0.131764 0 0)
(0.131762 0 0)
(0.131761 0 0)
(0.13176 0 0)
(0.131758 0 0)
(0.131757 0 0)
(0.131756 0 0)
(0.131755 0 0)
(0.131754 0 0)
(0.131753 0 0)
(0.131752 0 0)
(0.131751 0 0)
(0.13175 0 0)
(0.131749 0 0)
(0.131749 0 0)
(0.131748 0 0)
(0.131747 0 0)
(0.131747 0 0)
(0.131746 0 0)
(0.131746 0 0)
(0.131745 0 0)
(0.131745 0 0)
(0.131744 0 0)
(0.131744 0 0)
(0.131743 0 0)
(0.131743 0 0)
(0.131743 0 0)
(0.131742 0 0)
(0.131742 0 0)
(0.131742 0 0)
(0.131742 0 0)
(0.131741 0 0)
(0.131741 0 0)
(0.131741 0 0)
(0.131741 0 0)
(0.13174 0 0)
(0.13174 0 0)
(0.13174 0 0)
(0.13174 0 0)
(0.13174 0 0)
(0.13174 0 0)
(0.13174 0 0)
(0.131739 0 0)
(0.131739 0 0)
(0.131739 0 0)
(0.131739 0 0)
(0.131739 0 0)
(0.131739 0 0)
(0.131739 0 0)
(0.131739 0 0)
(0.131739 0 0)
(0.131739 0 0)
(0.131739 0 0)
(0.131739 0 0)
(0.131739 0 0)
(0.131738 0 0)
(0.131738 0 0)
(0.131738 0 0)
(0.131738 0 0)
(0.131738 0 0)
(0.131738 0 0)
(0.131738 0 0)
(0.131738 0 0)
(0.131738 0 0)
(0.131738 0 0)
(0.131738 0 0)
(0.131738 0 0)
(0.131738 0 0)
(0.131738 0 0)
(0.131738 0 0)
(0.131738 0 0)
(0.131738 0 0)
(0.131738 0 0)
(0.131738 0 0)
(0.131738 0 0)
(0.131738 0 0)
(0.131738 0 0)
(0.131738 0 0)
(0.131738 0 0)
(0.131738 0 0)
(0.131738 0 0)
(0.131738 0 0)
(0.131738 0 0)
(0.131738 0 0)
(0.131738 0 0)
(0.131738 0 0)
(0.131738 0 0)
(0.131738 0 0)
(0.131738 0 0)
(0.131738 0 0)
(0.131738 0 0)
(0.131738 0 0)
(0.131738 0 0)
(0.131738 0 0)
(0.131738 0 0)
(0.131738 0 0)
(0.131738 0 0)
(0.131738 0 0)
(0.131738 0 0)
(0.131738 0 0)
(0.131738 0 0)
(0.131738 0 0)
(0.131738 0 0)
(0.131738 0 0)
(0.131738 0 0)
(0.131738 0 0)
(0.131738 0 0)
(0.131738 0 0)
(0.131738 0 0)
(0.131738 0 0)
(0.131738 0 0)
(0.131738 0 0)
(0.131738 0 0)
(0.131738 0 0)
(0.131738 0 0)
(0.131738 0 0)
(0.131738 0 0)
(0.131738 0 0)
(0.131738 0 0)
(0.131738 0 0)
(0.131738 0 0)
(0.131738 0 0)
(0.131738 0 0)
(0.131738 0 0)
(0.131738 0 0)
(0.131738 0 0)
(0.131738 0 0)
(0.131738 0 0)
(0.131738 0 0)
(0.131738 0 0)
(0.131738 0 0)
(0.131738 0 0)
(0.131738 0 0)
(0.131738 0 0)
(0.131738 0 0)
(0.131738 0 0)
(0.131738 0 0)
(0.131738 0 0)
(0.131738 0 0)
(0.131738 0 0)
(0.131738 0 0)
(0.131738 0 0)
(0.131738 0 0)
(0.131738 0 0)
(0.131738 0 0)
(0.131738 0 0)
(0.131738 0 0)
(0.131738 0 0)
(0.131738 0 0)
(0.131738 0 0)
(0.131738 0 0)
(0.131738 0 0)
(0.131738 0 0)
(0.131738 0 0)
(0.131738 0 0)
(0.131738 0 0)
(0.131738 0 0)
(0.131738 0 0)
(0.131738 0 0)
(0.131738 0 0)
(0.131738 0 0)
(0.131738 0 0)
(0.131738 0 0)
(0.131738 0 0)
(0.131738 0 0)
(0.131738 0 0)
(0.131738 0 0)
(0.131738 0 0)
(0.131738 0 0)
(0.131738 0 0)
(0.131738 0 0)
(0.131738 0 0)
(0.131738 0 0)
(0.131738 0 0)
(0.131738 0 0)
(0.131738 0 0)
(0.131738 0 0)
(0.131738 0 0)
(0.131738 0 0)
(0.131738 0 0)
(0.131738 0 0)
(0.131738 0 0)
(0.131738 0 0)
(0.131738 0 0)
(0.131738 0 0)
(0.131738 0 0)
(0.131738 0 0)
(0.131738 0 0)
(0.131738 0 0)
(0.131738 0 0)
(0.131738 0 0)
(0.131738 0 0)
(0.131738 0 0)
(0.131738 0 0)
(0.131738 0 0)
(0.131738 0 0)
(0.131738 0 0)
(0.131738 0 0)
(0.131738 0 0)
(0.131738 0 0)
(0.131738 0 0)
(0.131738 0 0)
(0.131738 0 0)
(0.131738 0 0)
(0.131738 0 0)
(0.131738 0 0)
(0.131738 0 0)
(0.131738 0 0)
(0.131738 0 0)
(0.131738 0 0)
(0.131738 0 0)
(0.131738 0 0)
(0.131738 0 0)
(0.131738 0 0)
(0.131738 0 0)
(0.131738 0 0)
(0.131738 0 0)
(0.131738 0 0)
(0.131738 0 0)
(0.131738 0 0)
(0.131738 0 0)
(0.131738 0 0)
(0.131738 0 0)
(0.131738 0 0)
(0.131738 0 0)
(0.131738 0 0)
(0.131738 0 0)
(0.131738 0 0)
(0.131738 0 0)
(0.131738 0 0)
(0.131738 0 0)
(0.131738 0 0)
(0.131738 0 0)
(0.131738 0 0)
(0.131738 0 0)
(0.131738 0 0)
(0.131738 0 0)
(0.131738 0 0)
(0.131738 0 0)
(0.131738 0 0)
(0.131738 0 0)
(0.131738 0 0)
(0.131738 0 0)
(0.131738 0 0)
(0.131738 0 0)
(0.131738 0 0)
(0.131738 0 0)
(0.131738 0 0)
(0.131738 0 0)
(0.131738 0 0)
(0.131738 0 0)
(0.131738 0 0)
(0.131738 0 0)
(0.131738 0 0)
(0.131738 0 0)
(0.131738 0 0)
(0.131738 0 0)
(0.131738 0 0)
(0.131738 0 0)
(0.131738 0 0)
(0.131738 0 0)
(0.131738 0 0)
(0.131738 0 0)
(0.131738 0 0)
(0.131738 0 0)
(0.131738 0 0)
(0.131738 0 0)
(0.131738 0 0)
(0.131738 0 0)
(0.131738 0 0)
(0.131738 0 0)
(0.131738 0 0)
(0.131738 0 0)
(0.131738 0 0)
(0.131738 0 0)
(0.131738 0 0)
(0.131738 0 0)
(0.131738 0 0)
(0.131738 0 0)
(0.131738 0 0)
(0.131738 0 0)
(0.131738 0 0)
(0.131738 0 0)
(0.131738 0 0)
(0.131738 0 0)
(0.131738 0 0)
(0.131738 0 0)
(0.131738 0 0)
(0.131738 0 0)
(0.131738 0 0)
(0.131738 0 0)
(0.131738 0 0)
(0.131738 0 0)
(0.131738 0 0)
(0.131738 0 0)
(0.131738 0 0)
(0.131738 0 0)
(0.131738 0 0)
(0.131738 0 0)
(0.131738 0 0)
(0.131738 0 0)
(0.131738 0 0)
(0.131738 0 0)
(0.131738 0 0)
(0.131738 0 0)
(0.131738 0 0)
(0.131738 0 0)
(0.131738 0 0)
(0.131738 0 0)
(0.131738 0 0)
(0.131738 0 0)
(0.131738 0 0)
(0.131738 0 0)
(0.131738 0 0)
(0.131738 0 0)
(0.131738 0 0)
(0.131738 0 0)
(0.131738 0 0)
(0.131738 0 0)
(0.131738 0 0)
(0.131738 0 0)
(0.131738 0 0)
(0.131738 0 0)
(0.131738 0 0)
(0.131738 0 0)
(0.131738 0 0)
(0.131738 0 0)
(0.131738 0 0)
(0.131738 0 0)
(0.131738 0 0)
(0.131738 0 0)
(0.131738 0 0)
(0.131738 0 0)
(0.131738 0 0)
(0.131738 0 0)
(0.131738 0 0)
(0.131738 0 0)
(0.131738 0 0)
(0.131738 0 0)
(0.131738 0 0)
(0.131738 0 0)
(0.131738 0 0)
(0.131738 0 0)
(0.131738 0 0)
(0.131738 0 0)
(0.131738 0 0)
(0.131738 0 0)
(0.131738 0 0)
(0.131738 0 0)
(0.131738 0 0)
(0.131738 0 0)
(0.131738 0 0)
(0.131738 0 0)
(0.131738 0 0)
(0.131738 0 0)
(0.131738 0 0)
(0.131738 0 0)
(0.131738 0 0)
(0.131738 0 0)
(0.131738 0 0)
(0.131738 0 0)
(0.131738 0 0)
(0.131738 0 0)
(0.131738 0 0)
(0.131738 0 0)
(0.131738 0 0)
(0.131738 0 0)
(0.131738 0 0)
(0.131738 0 0)
(0.131738 0 0)
(0.131738 0 0)
(0.131738 0 0)
(0.131738 0 0)
(0.131738 0 0)
(0.131738 0 0)
(0.131738 0 0)
(0.131738 0 0)
(0.131738 0 0)
(0.131738 0 0)
(0.131738 0 0)
(0.131738 0 0)
(0.131738 0 0)
(0.131738 0 0)
(0.131738 0 0)
(0.131738 0 0)
(0.131738 0 0)
(0.131738 0 0)
(0.131738 0 0)
(0.131738 0 0)
(0.131738 0 0)
(0.131738 0 0)
(0.131738 0 0)
(0.131738 0 0)
(0.131738 0 0)
(0.131738 0 0)
(0.131738 0 0)
(0.131738 0 0)
(0.131738 0 0)
(0.131738 0 0)
(0.131738 0 0)
(0.131738 0 0)
(0.131738 0 0)
(0.131738 0 0)
(0.131738 0 0)
(0.131738 0 0)
(0.131738 0 0)
(0.131738 0 0)
(0.131738 0 0)
(0.131738 0 0)
(0.131738 0 0)
(0.131738 0 0)
(0.131738 0 0)
(0.131738 0 0)
(0.131738 0 0)
(0.131738 0 0)
(0.131738 0 0)
(0.131738 0 0)
(0.131738 0 0)
(0.131738 0 0)
(0.131738 0 0)
(0.131738 0 0)
(0.131738 0 0)
(0.131738 0 0)
(0.131738 0 0)
(0.131738 0 0)
(0.131738 0 0)
(0.131738 0 0)
(0.131738 0 0)
(0.131738 0 0)
(0.131738 0 0)
(0.131738 0 0)
(0.131738 0 0)
(0.131738 0 0)
(0.131738 0 0)
(0.131738 0 0)
(0.131738 0 0)
(0.131738 0 0)
(0.131738 0 0)
(0.131738 0 0)
(0.131738 0 0)
(0.131738 0 0)
(0.131738 0 0)
(0.131738 0 0)
(0.131738 0 0)
(0.131738 0 0)
(0.131738 0 0)
(0.131738 0 0)
(0.131738 0 0)
(0.131738 0 0)
(0.131738 0 0)
(0.131738 0 0)
(0.131738 0 0)
(0.131738 0 0)
(0.131738 0 0)
(0.131738 0 0)
(0.131738 0 0)
(0.131738 0 0)
(0.131738 0 0)
(0.131738 0 0)
(0.131738 0 0)
(0.131738 0 0)
(0.131738 0 0)
(0.131738 0 0)
(0.131738 0 0)
(0.131738 0 0)
(0.131738 0 0)
(0.131738 0 0)
(0.131738 0 0)
(0.131738 0 0)
(0.131738 0 0)
(0.131738 0 0)
(0.131738 0 0)
(0.131738 0 0)
(0.131738 0 0)
(0.131738 0 0)
(0.131738 0 0)
(0.131738 0 0)
(0.131738 0 0)
(0.131738 0 0)
(0.131738 0 0)
(0.131738 0 0)
(0.131738 0 0)
(0.131738 0 0)
(0.131738 0 0)
(0.131738 0 0)
(0.131738 0 0)
(0.131738 0 0)
(0.131738 0 0)
(0.131738 0 0)
(0.131738 0 0)
(0.131738 0 0)
(0.131738 0 0)
(0.131738 0 0)
(0.131738 0 0)
(0.131738 0 0)
(0.131738 0 0)
(0.131738 0 0)
(0.131738 0 0)
(0.131738 0 0)
(0.131738 0 0)
(0.131738 0 0)
(0.131738 0 0)
(0.131738 0 0)
(0.131738 0 0)
(0.131738 0 0)
(0.131738 0 0)
(0.131738 0 0)
(0.131738 0 0)
(0.131738 0 0)
(0.131738 0 0)
(0.131738 0 0)
(0.131738 0 0)
(0.131738 0 0)
(0.131738 0 0)
(0.131738 0 0)
(0.131738 0 0)
(0.131738 0 0)
(0.131738 0 0)
(0.131738 0 0)
(0.131738 0 0)
(0.131738 0 0)
(0.131738 0 0)
(0.131738 0 0)
(0.131738 0 0)
(0.131738 0 0)
(0.131738 0 0)
(0.131738 0 0)
(0.131738 0 0)
(0.131738 0 0)
(0.131738 0 0)
(0.131738 0 0)
(0.131738 0 0)
(0.131738 0 0)
(0.131738 0 0)
(0.131738 0 0)
(0.131738 0 0)
(0.131738 0 0)
(0.131738 0 0)
(0.131738 0 0)
(0.131738 0 0)
(0.131738 0 0)
(0.131738 0 0)
(0.131738 0 0)
(0.131738 0 0)
(0.131738 0 0)
(0.131738 0 0)
(0.131738 0 0)
(0.131738 0 0)
(0.131738 0 0)
(0.131738 0 0)
(0.131739 0 0)
(0.131737 0 0)
(0.131739 0 0)
(0.131737 0 0)
(0.131739 0 0)
(0.131737 0 0)
(0.131739 0 0)
(0.131737 0 0)
(0.131739 0 0)
(0.131737 0 0)
(0.131739 0 0)
(0.131737 0 0)
(0.131739 0 0)
(0.131737 0 0)
(0.131739 0 0)
(0.131737 0 0)
(0.131739 0 0)
(0.131736 0 0)
(0.13174 0 0)
(0.131736 0 0)
(0.13174 0 0)
(0.131736 0 0)
(0.13174 0 0)
(0.131736 0 0)
(0.13174 0 0)
(0.131735 0 0)
(0.13174 0 0)
(0.131735 0 0)
(0.131741 0 0)
(0.131735 0 0)
(0.131741 0 0)
(0.131734 0 0)
(0.131741 0 0)
(0.131734 0 0)
(0.131742 0 0)
(0.131734 0 0)
(0.131742 0 0)
(0.131733 0 0)
(0.131743 0 0)
(0.131733 0 0)
(0.131743 0 0)
(0.131732 0 0)
(0.131744 0 0)
(0.131731 0 0)
(0.131744 0 0)
(0.131731 0 0)
(0.131745 0 0)
(0.13173 0 0)
(0.131745 0 0)
(0.131729 0 0)
(0.131746 0 0)
(0.131728 0 0)
(0.131746 0 0)
(0.131727 0 0)
(0.131747 0 0)
(0.131727 0 0)
(0.131748 0 0)
(0.131726 0 0)
(0.131749 0 0)
(0.131724 0 0)
(0.131749 0 0)
(0.131723 0 0)
(0.13175 0 0)
(0.131722 0 0)
(0.131751 0 0)
(0.131721 0 0)
(0.131752 0 0)
(0.131719 0 0)
(0.131753 0 0)
(0.131718 0 0)
(0.131754 0 0)
(0.131716 0 0)
(0.131755 0 0)
(0.131715 0 0)
(0.131756 0 0)
(0.131713 0 0)
(0.131757 0 0)
(0.131711 0 0)
(0.131758 0 0)
(0.131709 0 0)
(0.131759 0 0)
(0.131707 0 0)
(0.13176 0 0)
(0.131705 0 0)
(0.13176 0 0)
(0.131703 0 0)
(0.131761 0 0)
(0.131701 0 0)
(0.131762 0 0)
(0.131699 0 0)
)
;

boundaryField
{
    topWall
    {
        type            empty;
    }
    bottomWall
    {
        type            empty;
    }
    leftAndRight_half1
    {
        type            cyclic;
    }
    leftAndRight_half0
    {
        type            cyclic;
    }
    frontAndBack
    {
        type            empty;
    }
}


// ************************************************************************* //
