/*--------------------------------*- C++ -*----------------------------------*\
  =========                 |
  \\      /  F ield         | OpenFOAM: The Open Source CFD Toolbox
   \\    /   O peration     | Website:  https://openfoam.org
    \\  /    A nd           | Version:  9
     \\/     M anipulation  |
\*---------------------------------------------------------------------------*/
FoamFile
{
    format      ascii;
    class       volScalarField;
    location    "0.6";
    object      f_0;
}
// * * * * * * * * * * * * * * * * * * * * * * * * * * * * * * * * * * * * * //

dimensions      [1 -3 0 0 0 0 0];

internalField   nonuniform List<scalar> 
1000
(
666.667
666.667
666.667
666.667
666.667
666.667
666.667
666.667
666.667
666.667
666.667
666.667
666.667
666.667
666.667
666.667
666.667
666.667
666.667
666.667
666.667
666.667
666.667
666.667
666.667
666.667
666.667
666.667
666.667
666.667
666.667
666.667
666.667
666.667
666.667
666.667
666.667
666.667
666.667
666.667
666.667
666.667
666.667
666.667
666.667
666.667
666.667
666.667
666.667
666.667
666.667
666.667
666.667
666.667
666.667
666.667
666.667
666.667
666.667
666.667
666.667
666.667
666.667
666.667
666.667
666.667
666.667
666.667
666.667
666.667
666.667
666.667
666.667
666.667
666.667
666.667
666.667
666.667
666.667
666.667
666.667
666.667
666.667
666.667
666.667
666.667
666.667
666.667
666.667
666.667
666.667
666.667
666.667
666.667
666.667
666.667
666.667
666.667
666.667
666.667
666.667
666.667
666.667
666.667
666.667
666.667
666.667
666.667
666.667
666.667
666.667
666.667
666.667
666.667
666.667
666.667
666.667
666.667
666.667
666.667
666.667
666.667
666.667
666.667
666.667
666.667
666.667
666.667
666.667
666.667
666.667
666.667
666.667
666.667
666.667
666.667
666.667
666.667
666.667
666.667
666.667
666.667
666.667
666.667
666.667
666.667
666.667
666.667
666.667
666.667
666.667
666.667
666.667
666.667
666.667
666.667
666.667
666.667
666.667
666.667
666.667
666.667
666.667
666.667
666.667
666.667
666.667
666.667
666.667
666.667
666.667
666.667
666.667
666.667
666.667
666.667
666.667
666.667
666.667
666.667
666.667
666.667
666.667
666.667
666.667
666.666
666.666
666.666
666.666
666.666
666.666
666.666
666.666
666.666
666.666
666.666
666.666
666.666
666.666
666.666
666.666
666.666
666.666
666.666
666.666
666.666
666.666
666.666
666.666
666.666
666.666
666.666
666.666
666.666
666.666
666.666
666.666
666.666
666.666
666.666
666.666
666.666
666.666
666.666
666.666
666.666
666.666
666.666
666.666
666.666
666.666
666.665
666.665
666.665
666.665
666.665
666.665
666.665
666.665
666.665
666.665
666.665
666.665
666.665
666.665
666.665
666.665
666.665
666.665
666.664
666.664
666.664
666.664
666.664
666.664
666.664
666.664
666.664
666.664
666.664
666.663
666.663
666.663
666.663
666.663
666.663
666.663
666.663
666.663
666.662
666.662
666.662
666.662
666.662
666.662
666.662
666.661
666.661
666.661
666.661
666.661
666.661
666.66
666.66
666.66
666.66
666.66
666.66
666.659
666.659
666.659
666.659
666.659
666.658
666.658
666.658
666.658
666.657
666.657
666.657
666.657
666.656
666.656
666.656
666.656
666.655
666.655
666.655
666.655
666.654
666.654
666.654
666.653
666.653
666.653
666.652
666.652
666.652
666.652
666.651
666.651
666.651
666.65
666.65
666.649
666.649
666.649
666.648
666.648
666.648
666.647
666.647
666.646
666.646
666.646
666.645
666.645
666.644
666.644
666.644
666.643
666.643
666.642
666.642
666.641
666.641
666.64
666.64
666.64
666.639
666.639
666.638
666.638
666.637
666.637
666.636
666.636
666.635
666.635
666.634
666.634
666.633
666.633
666.632
666.632
666.631
666.631
666.63
666.63
666.629
666.629
666.628
666.628
666.627
666.626
666.626
666.625
666.625
666.624
666.624
666.623
666.623
666.622
666.622
666.621
666.62
666.62
666.619
666.619
666.618
666.618
666.617
666.616
666.616
666.615
666.615
666.614
666.614
666.613
666.613
666.612
666.611
666.611
666.61
666.61
666.609
666.609
666.608
666.607
666.607
666.606
666.606
666.605
666.605
666.604
666.604
666.603
666.602
666.602
666.601
666.601
666.6
666.6
666.599
666.599
666.598
666.598
666.597
666.596
666.596
666.595
666.595
666.594
666.594
666.593
666.593
666.592
666.592
666.591
666.591
666.59
666.59
666.589
666.589
666.588
666.588
666.587
666.587
666.586
666.586
666.585
666.585
666.584
666.584
666.583
666.583
666.582
666.582
666.581
666.581
666.58
666.58
666.579
666.579
666.579
666.578
666.578
666.577
666.577
666.576
666.576
666.575
666.575
666.575
666.574
666.574
666.573
666.573
666.572
666.572
666.572
666.571
666.571
666.57
666.57
666.57
666.569
666.569
666.568
666.568
666.568
666.567
666.567
666.567
666.566
666.566
666.566
666.565
666.565
666.564
666.564
666.564
666.563
666.563
666.563
666.562
666.562
666.562
666.561
666.561
666.561
666.56
666.56
666.56
666.559
666.559
666.559
666.559
666.558
666.558
666.558
666.557
666.557
666.557
666.557
666.556
666.556
666.556
666.555
666.555
666.555
666.555
666.554
666.554
666.554
666.554
666.553
666.553
666.553
666.553
666.552
666.552
666.552
666.552
666.551
666.551
666.551
666.551
666.55
666.55
666.55
666.55
666.55
666.549
666.549
666.549
666.549
666.549
666.548
666.548
666.548
666.548
666.548
666.547
666.547
666.547
666.547
666.547
666.547
666.546
666.546
666.546
666.546
666.546
666.546
666.545
666.545
666.545
666.545
666.545
666.545
666.544
666.544
666.544
666.544
666.544
666.544
666.544
666.544
666.543
666.543
666.543
666.543
666.543
666.543
666.543
666.543
666.543
666.542
666.542
666.542
666.542
666.542
666.542
666.542
666.542
666.542
666.542
666.542
666.542
666.542
666.542
666.542
666.542
666.542
666.542
666.542
666.542
666.542
666.542
666.542
666.542
666.542
666.542
666.542
666.542
666.542
666.542
666.542
666.542
666.542
666.542
666.542
666.543
666.543
666.543
666.543
666.543
666.543
666.544
666.544
666.544
666.544
666.544
666.545
666.545
666.545
666.546
666.546
666.546
666.547
666.547
666.548
666.548
666.549
666.549
666.55
666.55
666.551
666.551
666.552
666.553
666.553
666.554
666.555
666.556
666.557
666.558
666.559
666.56
666.561
666.562
666.563
666.564
666.566
666.567
666.568
666.57
666.572
666.573
666.575
666.577
666.579
666.581
666.583
666.585
666.587
666.59
666.592
666.595
666.597
666.6
666.603
666.607
666.61
666.613
666.617
666.621
666.624
666.629
666.633
666.637
666.642
666.647
666.652
666.657
666.662
666.668
666.674
666.68
666.686
666.693
666.7
666.707
666.714
666.722
666.73
666.738
666.746
666.755
666.764
666.773
666.783
666.793
666.803
666.813
666.823
666.834
666.845
666.856
666.868
666.879
666.891
666.903
666.915
666.928
666.94
666.952
666.965
666.977
666.989
667.002
667.014
667.026
667.038
667.049
667.061
667.072
667.082
667.093
667.103
667.112
667.121
667.129
667.137
667.144
667.151
667.157
667.162
667.166
667.17
667.173
667.175
667.176
667.177
667.177
667.176
667.174
667.172
667.169
667.165
667.16
667.155
667.149
667.142
667.135
667.128
667.12
667.111
667.102
667.093
667.084
667.074
667.064
667.053
667.043
667.032
667.022
667.011
667
666.99
666.979
666.968
666.958
666.947
666.937
666.927
666.917
666.907
666.898
666.889
666.88
666.871
666.862
666.854
666.846
666.838
666.83
666.823
666.816
666.809
666.802
666.796
666.79
666.784
666.778
666.773
666.767
666.762
666.757
666.753
666.749
666.744
666.74
666.737
666.733
666.729
666.726
666.723
666.72
666.717
666.714
666.712
666.709
666.707
666.705
666.703
666.701
666.699
666.697
666.695
666.694
666.692
666.691
666.689
666.688
666.687
666.686
666.685
666.683
666.683
666.682
666.681
666.68
666.679
666.678
666.678
666.677
666.676
666.676
666.675
666.675
666.674
666.674
666.673
666.673
666.673
666.672
666.672
666.672
666.671
666.671
666.671
666.67
666.67
666.67
666.67
666.67
666.669
666.669
666.669
666.669
666.669
666.669
666.669
666.668
666.668
666.668
666.668
666.668
666.668
666.668
666.668
666.668
666.668
666.668
666.667
666.667
666.667
666.667
666.667
666.667
666.667
666.667
666.667
666.667
666.667
666.667
666.667
666.667
666.667
666.667
666.667
666.667
666.667
666.667
666.667
666.667
666.667
666.667
666.667
666.667
666.667
666.667
666.667
666.667
666.667
666.667
666.667
666.667
666.667
666.667
666.667
666.667
666.667
666.667
666.667
666.667
666.667
666.667
666.667
666.667
666.667
666.667
666.667
666.667
666.667
666.667
666.667
666.667
666.667
666.667
666.667
666.667
666.667
666.667
666.667
666.667
666.667
666.667
666.667
666.667
666.667
666.667
666.667
666.667
666.667
666.667
666.667
666.667
666.667
666.667
666.667
666.667
666.667
666.667
666.667
666.667
666.667
666.667
666.667
666.667
666.667
666.667
666.667
666.667
666.667
666.667
666.667
666.667
666.667
666.667
666.667
666.667
666.667
666.667
666.667
666.667
666.667
666.667
)
;

boundaryField
{
    topWall
    {
        type            empty;
    }
    bottomWall
    {
        type            empty;
    }
    leftAndRight_half1
    {
        type            cyclic;
    }
    leftAndRight_half0
    {
        type            cyclic;
    }
    frontAndBack
    {
        type            empty;
    }
}


// ************************************************************************* //
