/*--------------------------------*- C++ -*----------------------------------*\
  =========                 |
  \\      /  F ield         | OpenFOAM: The Open Source CFD Toolbox
   \\    /   O peration     | Website:  https://openfoam.org
    \\  /    A nd           | Version:  9
     \\/     M anipulation  |
\*---------------------------------------------------------------------------*/
FoamFile
{
    format      ascii;
    class       volScalarField;
    location    "0.6";
    object      f_2;
}
// * * * * * * * * * * * * * * * * * * * * * * * * * * * * * * * * * * * * * //

dimensions      [1 -3 0 0 0 0 0];

internalField   nonuniform List<scalar> 
1000
(
164.481
164.481
164.481
164.481
164.481
164.481
164.481
164.481
164.481
164.481
164.481
164.481
164.481
164.481
164.481
164.481
164.481
164.481
164.481
164.481
164.481
164.481
164.481
164.481
164.481
164.481
164.481
164.481
164.481
164.481
164.481
164.481
164.481
164.481
164.481
164.481
164.481
164.481
164.481
164.481
164.481
164.481
164.481
164.481
164.481
164.481
164.481
164.481
164.481
164.481
164.481
164.481
164.481
164.481
164.481
164.481
164.481
164.481
164.481
164.481
164.481
164.481
164.481
164.481
164.481
164.481
164.481
164.481
164.481
164.481
164.481
164.481
164.481
164.481
164.481
164.481
164.481
164.481
164.481
164.481
164.481
164.481
164.481
164.481
164.481
164.481
164.481
164.481
164.481
164.481
164.481
164.481
164.481
164.481
164.481
164.481
164.481
164.481
164.481
164.481
164.481
164.481
164.481
164.481
164.481
164.481
164.481
164.481
164.481
164.481
164.481
164.481
164.481
164.481
164.481
164.481
164.481
164.481
164.481
164.481
164.481
164.481
164.481
164.481
164.481
164.481
164.481
164.481
164.481
164.481
164.481
164.481
164.481
164.481
164.481
164.481
164.481
164.481
164.481
164.481
164.481
164.481
164.481
164.481
164.481
164.481
164.481
164.481
164.481
164.481
164.481
164.481
164.481
164.481
164.481
164.481
164.481
164.481
164.481
164.481
164.481
164.481
164.481
164.481
164.481
164.48
164.48
164.48
164.48
164.48
164.48
164.48
164.48
164.48
164.48
164.48
164.48
164.48
164.48
164.48
164.48
164.48
164.48
164.479
164.479
164.479
164.479
164.479
164.479
164.479
164.479
164.479
164.479
164.478
164.478
164.478
164.478
164.478
164.478
164.478
164.477
164.477
164.477
164.477
164.477
164.476
164.476
164.476
164.476
164.475
164.475
164.475
164.475
164.474
164.474
164.474
164.473
164.473
164.473
164.472
164.472
164.471
164.471
164.471
164.47
164.47
164.469
164.469
164.468
164.468
164.467
164.466
164.466
164.465
164.464
164.464
164.463
164.462
164.462
164.461
164.46
164.459
164.458
164.457
164.456
164.455
164.454
164.453
164.452
164.451
164.45
164.449
164.447
164.446
164.445
164.443
164.442
164.441
164.439
164.437
164.436
164.434
164.432
164.431
164.429
164.427
164.425
164.423
164.421
164.419
164.417
164.414
164.412
164.41
164.407
164.405
164.402
164.399
164.396
164.394
164.391
164.388
164.384
164.381
164.378
164.375
164.371
164.368
164.364
164.36
164.356
164.352
164.348
164.344
164.34
164.335
164.331
164.326
164.321
164.316
164.311
164.306
164.301
164.296
164.29
164.284
164.279
164.273
164.267
164.26
164.254
164.248
164.241
164.234
164.227
164.22
164.213
164.205
164.198
164.19
164.182
164.174
164.166
164.157
164.149
164.14
164.131
164.122
164.112
164.103
164.093
164.083
164.073
164.063
164.052
164.042
164.031
164.02
164.008
163.997
163.985
163.973
163.961
163.948
163.936
163.923
163.91
163.897
163.883
163.869
163.855
163.841
163.827
163.812
163.797
163.782
163.767
163.751
163.735
163.719
163.703
163.686
163.669
163.652
163.635
163.617
163.599
163.581
163.563
163.544
163.526
163.506
163.487
163.467
163.447
163.427
163.407
163.386
163.365
163.344
163.322
163.3
163.278
163.256
163.233
163.211
163.188
163.164
163.14
163.116
163.092
163.068
163.043
163.018
162.993
162.967
162.941
162.915
162.889
162.862
162.835
162.808
162.781
162.753
162.725
162.697
162.668
162.639
162.61
162.581
162.551
162.521
162.491
162.461
162.43
162.399
162.368
162.336
162.304
162.272
162.24
162.208
162.175
162.142
162.108
162.075
162.041
162.007
161.973
161.938
161.903
161.868
161.833
161.797
161.761
161.725
161.689
161.652
161.616
161.578
161.541
161.504
161.466
161.428
161.39
161.351
161.312
161.273
161.234
161.195
161.155
161.115
161.075
161.035
160.995
160.954
160.913
160.872
160.83
160.789
160.747
160.705
160.663
160.62
160.577
160.535
160.492
160.448
160.405
160.361
160.317
160.273
160.229
160.185
160.14
160.095
160.05
160.005
159.96
159.914
159.868
159.822
159.776
159.73
159.683
159.637
159.59
159.543
159.496
159.449
159.401
159.353
159.306
159.258
159.21
159.161
159.113
159.064
159.015
158.966
158.917
158.868
158.819
158.769
158.72
158.67
158.62
158.57
158.52
158.469
158.419
158.368
158.317
158.266
158.215
158.164
158.113
158.062
158.01
157.958
157.907
157.855
157.803
157.75
157.698
157.646
157.593
157.541
157.488
157.435
157.382
157.329
157.276
157.223
157.169
157.116
157.062
157.009
156.955
156.901
156.847
156.793
156.739
156.685
156.63
156.576
156.521
156.467
156.412
156.357
156.302
156.247
156.192
156.137
156.082
156.027
155.971
155.916
155.861
155.805
155.749
155.694
155.638
155.582
155.526
155.47
155.414
155.358
155.302
155.246
155.189
155.133
155.077
155.02
154.964
154.907
154.85
154.794
154.737
154.68
154.623
154.567
154.51
154.453
154.396
154.339
154.282
154.224
154.167
154.11
154.053
153.996
153.938
153.881
153.824
153.766
153.709
153.652
153.594
153.537
153.479
153.422
153.364
153.307
153.249
153.192
153.134
153.077
153.019
152.962
152.904
152.847
152.789
152.732
152.674
152.617
152.559
152.502
152.444
152.387
152.33
152.272
152.215
152.158
152.101
152.043
151.986
151.929
151.872
151.815
151.758
151.702
151.645
151.588
151.532
151.475
151.419
151.363
151.306
151.25
151.194
151.139
151.083
151.027
150.972
150.917
150.862
150.807
150.752
150.698
150.643
150.589
150.535
150.482
150.428
150.375
150.322
150.27
150.217
150.165
150.113
150.062
150.011
149.961
149.91
149.86
149.811
149.762
149.714
149.666
149.618
149.571
149.525
149.479
149.434
149.39
149.346
149.303
149.26
149.219
149.178
149.138
149.099
149.061
149.024
148.988
148.953
148.919
148.886
148.854
148.824
148.795
148.768
148.742
148.717
148.694
148.673
148.653
148.635
148.62
148.606
148.594
148.584
148.576
148.571
148.568
148.568
148.57
148.575
148.583
148.594
148.607
148.624
148.644
148.668
148.695
148.725
148.76
148.798
148.84
148.886
148.937
148.992
149.051
149.115
149.184
149.258
149.336
149.42
149.508
149.602
149.702
149.807
149.917
150.033
150.154
150.281
150.414
150.553
150.697
150.847
151.003
151.164
151.331
151.504
151.681
151.865
152.053
152.246
152.444
152.647
152.854
153.066
153.281
153.501
153.723
153.949
154.177
154.408
154.641
154.876
155.113
155.35
155.588
155.827
156.065
156.304
156.541
156.778
157.013
157.246
157.478
157.707
157.933
158.156
158.376
158.593
158.806
159.015
159.22
159.421
159.617
159.809
159.996
160.179
160.356
160.528
160.696
160.859
161.016
161.169
161.316
161.459
161.596
161.729
161.857
161.98
162.099
162.213
162.322
162.427
162.528
162.625
162.717
162.806
162.891
162.972
163.049
163.123
163.194
163.261
163.325
163.386
163.445
163.5
163.553
163.603
163.651
163.696
163.739
163.78
163.819
163.856
163.891
163.924
163.955
163.985
164.013
164.04
164.065
164.089
164.111
164.133
164.153
164.172
164.19
164.207
164.223
164.239
164.253
164.266
164.279
164.291
164.303
164.313
164.324
164.333
164.342
164.35
164.358
164.366
164.373
164.38
164.386
164.392
164.397
164.403
164.407
164.412
164.416
164.42
164.424
164.428
164.431
164.434
164.437
164.44
164.443
164.445
164.447
164.45
164.452
164.454
164.455
164.457
164.459
164.46
164.461
164.463
164.464
164.465
164.466
164.467
164.468
164.469
164.47
164.471
164.471
164.472
164.473
164.473
164.474
164.474
164.475
164.475
164.475
164.476
164.476
164.477
164.477
164.477
164.477
164.478
164.478
164.478
164.478
164.479
164.479
164.479
164.479
164.479
164.479
164.479
164.48
164.48
164.48
164.48
164.48
164.48
164.48
164.48
164.48
164.48
164.48
164.48
164.481
164.481
164.481
164.481
164.481
164.481
164.481
164.481
164.481
164.481
164.481
164.481
164.481
164.481
164.481
164.481
164.481
164.481
164.481
164.481
164.481
164.481
164.481
164.481
164.481
164.481
164.481
164.481
164.481
164.481
164.481
164.481
164.481
164.481
164.481
164.481
164.481
164.481
164.481
164.481
164.481
164.481
164.481
164.481
164.481
164.481
164.481
164.481
164.481
164.481
164.481
164.481
164.481
164.481
164.481
164.481
164.481
164.481
164.481
164.481
164.481
164.481
164.481
164.481
164.481
164.481
164.481
164.481
164.481
164.481
164.481
164.481
164.481
164.481
164.481
)
;

boundaryField
{
    topWall
    {
        type            empty;
    }
    bottomWall
    {
        type            empty;
    }
    leftAndRight_half1
    {
        type            cyclic;
    }
    leftAndRight_half0
    {
        type            cyclic;
    }
    frontAndBack
    {
        type            empty;
    }
}


// ************************************************************************* //
