/*--------------------------------*- C++ -*----------------------------------*\
  =========                 |
  \\      /  F ield         | OpenFOAM: The Open Source CFD Toolbox
   \\    /   O peration     | Website:  https://openfoam.org
    \\  /    A nd           | Version:  9
     \\/     M anipulation  |
\*---------------------------------------------------------------------------*/
FoamFile
{
    format      ascii;
    class       volScalarField;
    location    "0.6";
    object      p;
}
// * * * * * * * * * * * * * * * * * * * * * * * * * * * * * * * * * * * * * //

dimensions      [1 -1 -2 0 0 0 0];

internalField   nonuniform List<scalar> 
1000
(
100097
100097
100097
100097
100097
100097
100097
100097
100097
100097
100097
100097
100097
100097
100097
100097
100097
100097
100097
100097
100097
100097
100097
100097
100097
100097
100097
100097
100097
100097
100097
100097
100097
100097
100097
100097
100097
100097
100097
100097
100097
100097
100097
100097
100097
100097
100097
100097
100097
100097
100097
100097
100097
100097
100097
100097
100097
100097
100097
100097
100097
100097
100097
100097
100097
100097
100097
100097
100097
100097
100097
100097
100097
100097
100097
100097
100097
100097
100097
100097
100097
100097
100097
100097
100097
100097
100097
100097
100097
100097
100097
100097
100097
100097
100097
100097
100097
100097
100097
100097
100097
100097
100097
100097
100097
100097
100097
100097
100097
100097
100097
100097
100097
100097
100097
100097
100097
100097
100097
100097
100097
100097
100097
100097
100097
100097
100097
100097
100097
100097
100097
100097
100097
100097
100097
100097
100097
100097
100097
100097
100097
100097
100097
100097
100097
100097
100097
100097
100097
100097
100097
100097
100097
100097
100097
100097
100097
100096
100096
100096
100096
100096
100096
100096
100096
100096
100096
100096
100096
100096
100096
100096
100096
100096
100096
100096
100096
100096
100096
100096
100096
100096
100096
100096
100096
100096
100096
100096
100095
100095
100095
100095
100095
100095
100095
100095
100095
100095
100095
100095
100095
100094
100094
100094
100094
100094
100094
100094
100094
100094
100093
100093
100093
100093
100093
100093
100092
100092
100092
100092
100092
100092
100091
100091
100091
100091
100090
100090
100090
100090
100089
100089
100089
100089
100088
100088
100088
100087
100087
100087
100086
100086
100085
100085
100085
100084
100084
100083
100083
100082
100082
100081
100081
100080
100080
100079
100079
100078
100078
100077
100076
100076
100075
100074
100074
100073
100072
100071
100071
100070
100069
100068
100067
100067
100066
100065
100064
100063
100062
100061
100060
100059
100058
100057
100056
100055
100054
100052
100051
100050
100049
100048
100046
100045
100044
100043
100041
100040
100039
100037
100036
100034
100033
100031
100030
100028
100027
100025
100024
100022
100020
100019
100017
100016
100014
100012
100010
100009
100007
100005
100003
100001
99999.6
99997.8
99995.9
99994
99992.1
99990.2
99988.3
99986.4
99984.4
99982.5
99980.5
99978.5
99976.5
99974.5
99972.6
99970.5
99968.5
99966.5
99964.5
99962.5
99960.4
99958.4
99956.4
99954.4
99952.3
99950.3
99948.3
99946.3
99944.2
99942.2
99940.2
99938.2
99936.3
99934.3
99932.3
99930.4
99928.4
99926.5
99924.6
99922.7
99920.8
99919
99917.2
99915.4
99913.6
99911.8
99910.1
99908.4
99906.7
99905
99903.4
99901.8
99900.3
99898.8
99897.3
99895.9
99894.5
99893.1
99891.8
99890.5
99889.3
99888.1
99887
99885.9
99884.9
99883.9
99883
99882.1
99881.3
99880.5
99879.8
99879.2
99878.7
99878.1
99877.7
99877.3
99877
99876.8
99876.7
99876.6
99876.6
99876.6
99876.8
99877
99877.3
99877.7
99878.2
99878.7
99879.4
99880.1
99880.9
99881.8
99882.8
99883.9
99885.1
99886.4
99887.8
99889.3
99890.9
99892.6
99894.4
99896.3
99898.3
99900.4
99902.7
99905
99907.4
99910
99912.7
99915.5
99918.4
99921.4
99924.6
99927.9
99931.2
99934.8
99938.4
99942.2
99946.1
99950.1
99954.3
99958.6
99963
99967.5
99972.2
99977.1
99982
99987.1
99992.4
99997.7
100003
100009
100015
100021
100027
100033
100039
100046
100053
100060
100067
100074
100081
100088
100096
100104
100112
100120
100128
100136
100145
100154
100163
100172
100181
100190
100200
100210
100219
100230
100240
100250
100261
100271
100282
100293
100305
100316
100328
100340
100352
100364
100376
100388
100401
100414
100427
100440
100454
100467
100481
100495
100509
100523
100538
100553
100567
100582
100598
100613
100629
100645
100661
100677
100693
100710
100726
100743
100761
100778
100795
100813
100831
100849
100867
100886
100905
100923
100943
100962
100981
101001
101021
101041
101061
101082
101102
101123
101144
101165
101187
101209
101230
101253
101275
101297
101320
101343
101366
101389
101413
101436
101460
101484
101509
101533
101558
101583
101608
101633
101659
101684
101710
101736
101763
101789
101816
101843
101870
101897
101925
101953
101981
102009
102037
102066
102095
102124
102153
102182
102212
102242
102272
102302
102333
102363
102394
102425
102457
102488
102520
102552
102584
102616
102649
102682
102715
102748
102781
102815
102849
102883
102917
102951
102986
103021
103056
103091
103127
103162
103198
103234
103271
103307
103344
103381
103418
103455
103493
103531
103569
103607
103645
103684
103723
103762
103801
103840
103880
103920
103960
104000
104040
104081
104122
104163
104204
104245
104287
104328
104370
104413
104455
104498
104540
104583
104626
104670
104713
104757
104801
104845
104889
104933
104978
105023
105068
105113
105158
105203
105249
105295
105340
105386
105433
105479
105525
105572
105619
105666
105713
105760
105807
105854
105902
105949
105997
106045
106093
106140
106188
106236
106284
106332
106380
106428
106477
106525
106573
106621
106668
106716
106764
106812
106859
106907
106954
107001
107048
107094
107140
107186
107232
107277
107322
107366
107410
107454
107496
107539
107580
107621
107661
107700
107738
107775
107812
107847
107881
107913
107945
107974
108003
108029
108054
108077
108098
108117
108134
108148
108160
108169
108176
108180
108180
108178
108172
108163
108151
108135
108115
108091
108063
108031
107995
107955
107910
107860
107806
107748
107684
107616
107544
107467
107385
107299
107208
107113
107014
106910
106803
106691
106577
106458
106337
106212
106085
105956
105824
105690
105555
105418
105281
105142
105003
104864
104725
104586
104448
104310
104174
104039
103905
103774
103644
103516
103390
103267
103146
103028
102913
102800
102690
102584
102480
102379
102281
102186
102094
102006
101920
101837
101757
101680
101606
101535
101467
101401
101338
101277
101219
101164
101110
101059
101011
100964
100920
100877
100837
100798
100762
100727
100693
100661
100631
100603
100575
100549
100525
100501
100479
100458
100438
100419
100401
100384
100368
100352
100338
100324
100311
100299
100287
100276
100266
100256
100247
100238
100230
100222
100214
100208
100201
100195
100189
100183
100178
100173
100169
100164
100160
100156
100153
100149
100146
100143
100140
100137
100135
100133
100130
100128
100126
100124
100123
100121
100120
100118
100117
100115
100114
100113
100112
100111
100110
100109
100109
100108
100107
100106
100106
100105
100105
100104
100104
100103
100103
100102
100102
100102
100101
100101
100101
100100
100100
100100
100100
100100
100099
100099
100099
100099
100099
100099
100098
100098
100098
100098
100098
100098
100098
100098
100098
100098
100098
100098
100098
100097
100097
100097
100097
100097
100097
100097
100097
100097
100097
100097
100097
100097
100097
100097
100097
100097
100097
100097
100097
100097
100097
100097
100097
100097
100097
100097
100097
100097
100097
100097
100097
100097
100097
100097
100097
100097
100097
100097
100097
100097
100097
100097
100097
100097
100097
100097
100097
100097
100097
100097
100097
100097
100097
100097
100097
100097
100097
100097
100097
100097
100097
100097
100097
100097
100097
100097
100097
100097
100097
100097
)
;

boundaryField
{
    topWall
    {
        type            empty;
    }
    bottomWall
    {
        type            empty;
    }
    leftAndRight_half1
    {
        type            cyclic;
    }
    leftAndRight_half0
    {
        type            cyclic;
    }
    frontAndBack
    {
        type            empty;
    }
}


// ************************************************************************* //
