/*--------------------------------*- C++ -*----------------------------------*\
  =========                 |
  \\      /  F ield         | OpenFOAM: The Open Source CFD Toolbox
   \\    /   O peration     | Website:  https://openfoam.org
    \\  /    A nd           | Version:  9
     \\/     M anipulation  |
\*---------------------------------------------------------------------------*/
FoamFile
{
    format      ascii;
    class       volVectorField;
    location    "0.6";
    object      U;
}
// * * * * * * * * * * * * * * * * * * * * * * * * * * * * * * * * * * * * * //

dimensions      [0 1 -1 0 0 0 0];

internalField   nonuniform List<vector> 
1000
(
(0.439989 0 0)
(0.439989 0 0)
(0.439989 0 0)
(0.439989 0 0)
(0.439989 0 0)
(0.439989 0 0)
(0.439989 0 0)
(0.439989 0 0)
(0.439989 0 0)
(0.439989 0 0)
(0.439989 0 0)
(0.439989 0 0)
(0.439989 0 0)
(0.439989 0 0)
(0.439989 0 0)
(0.439989 0 0)
(0.439989 0 0)
(0.439989 0 0)
(0.439989 0 0)
(0.439989 0 0)
(0.439989 0 0)
(0.439989 0 0)
(0.439989 0 0)
(0.439989 0 0)
(0.439989 0 0)
(0.439989 0 0)
(0.439989 0 0)
(0.439989 0 0)
(0.439989 0 0)
(0.439989 0 0)
(0.439989 0 0)
(0.439989 0 0)
(0.439989 0 0)
(0.439989 0 0)
(0.439989 0 0)
(0.439989 0 0)
(0.439989 0 0)
(0.439989 0 0)
(0.439989 0 0)
(0.439989 0 0)
(0.439989 0 0)
(0.439989 0 0)
(0.439989 0 0)
(0.439989 0 0)
(0.439989 0 0)
(0.439989 0 0)
(0.439989 0 0)
(0.439989 0 0)
(0.439989 0 0)
(0.439989 0 0)
(0.439989 0 0)
(0.439989 0 0)
(0.439989 0 0)
(0.439989 0 0)
(0.439989 0 0)
(0.439989 0 0)
(0.439989 0 0)
(0.439989 0 0)
(0.439989 0 0)
(0.439989 0 0)
(0.439989 0 0)
(0.439989 0 0)
(0.439989 0 0)
(0.439989 0 0)
(0.439989 0 0)
(0.439989 0 0)
(0.439989 0 0)
(0.439989 0 0)
(0.439989 0 0)
(0.439989 0 0)
(0.439989 0 0)
(0.439989 0 0)
(0.439989 0 0)
(0.439989 0 0)
(0.43999 0 0)
(0.43999 0 0)
(0.43999 0 0)
(0.43999 0 0)
(0.43999 0 0)
(0.43999 0 0)
(0.43999 0 0)
(0.43999 0 0)
(0.43999 0 0)
(0.43999 0 0)
(0.43999 0 0)
(0.43999 0 0)
(0.43999 0 0)
(0.43999 0 0)
(0.43999 0 0)
(0.43999 0 0)
(0.439991 0 0)
(0.439991 0 0)
(0.439991 0 0)
(0.439991 0 0)
(0.439991 0 0)
(0.439991 0 0)
(0.439991 0 0)
(0.439992 0 0)
(0.439992 0 0)
(0.439992 0 0)
(0.439992 0 0)
(0.439992 0 0)
(0.439992 0 0)
(0.439993 0 0)
(0.439993 0 0)
(0.439993 0 0)
(0.439993 0 0)
(0.439994 0 0)
(0.439994 0 0)
(0.439994 0 0)
(0.439995 0 0)
(0.439995 0 0)
(0.439995 0 0)
(0.439996 0 0)
(0.439996 0 0)
(0.439997 0 0)
(0.439997 0 0)
(0.439998 0 0)
(0.439998 0 0)
(0.439999 0 0)
(0.44 0 0)
(0.44 0 0)
(0.440001 0 0)
(0.440002 0 0)
(0.440002 0 0)
(0.440003 0 0)
(0.440004 0 0)
(0.440005 0 0)
(0.440006 0 0)
(0.440007 0 0)
(0.440008 0 0)
(0.440009 0 0)
(0.44001 0 0)
(0.440012 0 0)
(0.440013 0 0)
(0.440014 0 0)
(0.440016 0 0)
(0.440017 0 0)
(0.440019 0 0)
(0.440021 0 0)
(0.440023 0 0)
(0.440025 0 0)
(0.440027 0 0)
(0.440029 0 0)
(0.440031 0 0)
(0.440033 0 0)
(0.440036 0 0)
(0.440039 0 0)
(0.440041 0 0)
(0.440044 0 0)
(0.440048 0 0)
(0.440051 0 0)
(0.440054 0 0)
(0.440058 0 0)
(0.440062 0 0)
(0.440066 0 0)
(0.44007 0 0)
(0.440075 0 0)
(0.440079 0 0)
(0.440084 0 0)
(0.440089 0 0)
(0.440095 0 0)
(0.4401 0 0)
(0.440107 0 0)
(0.440113 0 0)
(0.440119 0 0)
(0.440126 0 0)
(0.440134 0 0)
(0.440141 0 0)
(0.44015 0 0)
(0.440158 0 0)
(0.440167 0 0)
(0.440176 0 0)
(0.440186 0 0)
(0.440196 0 0)
(0.440207 0 0)
(0.440218 0 0)
(0.44023 0 0)
(0.440242 0 0)
(0.440255 0 0)
(0.440269 0 0)
(0.440283 0 0)
(0.440298 0 0)
(0.440314 0 0)
(0.44033 0 0)
(0.440347 0 0)
(0.440365 0 0)
(0.440384 0 0)
(0.440403 0 0)
(0.440424 0 0)
(0.440445 0 0)
(0.440468 0 0)
(0.440491 0 0)
(0.440516 0 0)
(0.440541 0 0)
(0.440568 0 0)
(0.440596 0 0)
(0.440625 0 0)
(0.440655 0 0)
(0.440687 0 0)
(0.44072 0 0)
(0.440755 0 0)
(0.440791 0 0)
(0.440829 0 0)
(0.440868 0 0)
(0.440909 0 0)
(0.440952 0 0)
(0.440997 0 0)
(0.441043 0 0)
(0.441092 0 0)
(0.441142 0 0)
(0.441195 0 0)
(0.44125 0 0)
(0.441307 0 0)
(0.441366 0 0)
(0.441428 0 0)
(0.441492 0 0)
(0.441559 0 0)
(0.441629 0 0)
(0.441702 0 0)
(0.441777 0 0)
(0.441856 0 0)
(0.441937 0 0)
(0.442022 0 0)
(0.44211 0 0)
(0.442202 0 0)
(0.442297 0 0)
(0.442396 0 0)
(0.442499 0 0)
(0.442606 0 0)
(0.442716 0 0)
(0.442831 0 0)
(0.442951 0 0)
(0.443075 0 0)
(0.443203 0 0)
(0.443337 0 0)
(0.443475 0 0)
(0.443618 0 0)
(0.443767 0 0)
(0.443921 0 0)
(0.444081 0 0)
(0.444246 0 0)
(0.444418 0 0)
(0.444595 0 0)
(0.444779 0 0)
(0.44497 0 0)
(0.445167 0 0)
(0.445371 0 0)
(0.445583 0 0)
(0.445801 0 0)
(0.446028 0 0)
(0.446261 0 0)
(0.446503 0 0)
(0.446754 0 0)
(0.447012 0 0)
(0.44728 0 0)
(0.447556 0 0)
(0.447841 0 0)
(0.448136 0 0)
(0.448441 0 0)
(0.448755 0 0)
(0.44908 0 0)
(0.449416 0 0)
(0.449762 0 0)
(0.450119 0 0)
(0.450487 0 0)
(0.450867 0 0)
(0.451259 0 0)
(0.451663 0 0)
(0.45208 0 0)
(0.45251 0 0)
(0.452953 0 0)
(0.453409 0 0)
(0.453879 0 0)
(0.454363 0 0)
(0.454862 0 0)
(0.455376 0 0)
(0.455904 0 0)
(0.456448 0 0)
(0.457009 0 0)
(0.457585 0 0)
(0.458178 0 0)
(0.458788 0 0)
(0.459415 0 0)
(0.46006 0 0)
(0.460723 0 0)
(0.461405 0 0)
(0.462105 0 0)
(0.462825 0 0)
(0.463564 0 0)
(0.464324 0 0)
(0.465104 0 0)
(0.465905 0 0)
(0.466727 0 0)
(0.467571 0 0)
(0.468437 0 0)
(0.469326 0 0)
(0.470237 0 0)
(0.471172 0 0)
(0.472131 0 0)
(0.473115 0 0)
(0.474123 0 0)
(0.475156 0 0)
(0.476215 0 0)
(0.4773 0 0)
(0.478412 0 0)
(0.47955 0 0)
(0.480717 0 0)
(0.481911 0 0)
(0.483133 0 0)
(0.484384 0 0)
(0.485665 0 0)
(0.486975 0 0)
(0.488316 0 0)
(0.489687 0 0)
(0.491089 0 0)
(0.492523 0 0)
(0.493989 0 0)
(0.495488 0 0)
(0.49702 0 0)
(0.498585 0 0)
(0.500184 0 0)
(0.501818 0 0)
(0.503486 0 0)
(0.50519 0 0)
(0.50693 0 0)
(0.508706 0 0)
(0.510518 0 0)
(0.512368 0 0)
(0.514256 0 0)
(0.516181 0 0)
(0.518146 0 0)
(0.520149 0 0)
(0.522192 0 0)
(0.524274 0 0)
(0.526397 0 0)
(0.528561 0 0)
(0.530766 0 0)
(0.533013 0 0)
(0.535302 0 0)
(0.537633 0 0)
(0.540008 0 0)
(0.542425 0 0)
(0.544887 0 0)
(0.547392 0 0)
(0.549943 0 0)
(0.552538 0 0)
(0.555178 0 0)
(0.557865 0 0)
(0.560597 0 0)
(0.563376 0 0)
(0.566202 0 0)
(0.569076 0 0)
(0.571996 0 0)
(0.574965 0 0)
(0.577983 0 0)
(0.581048 0 0)
(0.584163 0 0)
(0.587328 0 0)
(0.590542 0 0)
(0.593806 0 0)
(0.59712 0 0)
(0.600485 0 0)
(0.603901 0 0)
(0.607367 0 0)
(0.610886 0 0)
(0.614456 0 0)
(0.618078 0 0)
(0.621753 0 0)
(0.62548 0 0)
(0.62926 0 0)
(0.633093 0 0)
(0.636979 0 0)
(0.640918 0 0)
(0.644911 0 0)
(0.648958 0 0)
(0.65306 0 0)
(0.657215 0 0)
(0.661425 0 0)
(0.665689 0 0)
(0.670009 0 0)
(0.674383 0 0)
(0.678812 0 0)
(0.683297 0 0)
(0.687837 0 0)
(0.692433 0 0)
(0.697084 0 0)
(0.701791 0 0)
(0.706553 0 0)
(0.711372 0 0)
(0.716247 0 0)
(0.721177 0 0)
(0.726164 0 0)
(0.731207 0 0)
(0.736307 0 0)
(0.741463 0 0)
(0.746675 0 0)
(0.751943 0 0)
(0.757268 0 0)
(0.76265 0 0)
(0.768088 0 0)
(0.773582 0 0)
(0.779133 0 0)
(0.78474 0 0)
(0.790403 0 0)
(0.796123 0 0)
(0.8019 0 0)
(0.807732 0 0)
(0.813621 0 0)
(0.819566 0 0)
(0.825568 0 0)
(0.831625 0 0)
(0.837738 0 0)
(0.843907 0 0)
(0.850132 0 0)
(0.856413 0 0)
(0.86275 0 0)
(0.869141 0 0)
(0.875589 0 0)
(0.882091 0 0)
(0.888649 0 0)
(0.895262 0 0)
(0.90193 0 0)
(0.908652 0 0)
(0.915429 0 0)
(0.922261 0 0)
(0.929146 0 0)
(0.936086 0 0)
(0.94308 0 0)
(0.950128 0 0)
(0.957229 0 0)
(0.964384 0 0)
(0.971592 0 0)
(0.978853 0 0)
(0.986167 0 0)
(0.993534 0 0)
(1.00095 0 0)
(1.00842 0 0)
(1.01595 0 0)
(1.02352 0 0)
(1.03115 0 0)
(1.03883 0 0)
(1.04656 0 0)
(1.05434 0 0)
(1.06217 0 0)
(1.07005 0 0)
(1.07798 0 0)
(1.08596 0 0)
(1.09399 0 0)
(1.10207 0 0)
(1.1102 0 0)
(1.11838 0 0)
(1.12661 0 0)
(1.13489 0 0)
(1.14321 0 0)
(1.15158 0 0)
(1.16 0 0)
(1.16847 0 0)
(1.17699 0 0)
(1.18555 0 0)
(1.19416 0 0)
(1.20281 0 0)
(1.21151 0 0)
(1.22026 0 0)
(1.22905 0 0)
(1.23789 0 0)
(1.24677 0 0)
(1.2557 0 0)
(1.26467 0 0)
(1.27368 0 0)
(1.28274 0 0)
(1.29185 0 0)
(1.30099 0 0)
(1.31018 0 0)
(1.31941 0 0)
(1.32869 0 0)
(1.33801 0 0)
(1.34736 0 0)
(1.35676 0 0)
(1.36621 0 0)
(1.37569 0 0)
(1.38521 0 0)
(1.39477 0 0)
(1.40438 0 0)
(1.41402 0 0)
(1.4237 0 0)
(1.43343 0 0)
(1.44319 0 0)
(1.45299 0 0)
(1.46283 0 0)
(1.4727 0 0)
(1.48262 0 0)
(1.49257 0 0)
(1.50256 0 0)
(1.51258 0 0)
(1.52265 0 0)
(1.53274 0 0)
(1.54288 0 0)
(1.55305 0 0)
(1.56326 0 0)
(1.5735 0 0)
(1.58378 0 0)
(1.59409 0 0)
(1.60443 0 0)
(1.61482 0 0)
(1.62523 0 0)
(1.63568 0 0)
(1.64616 0 0)
(1.65667 0 0)
(1.66722 0 0)
(1.6778 0 0)
(1.68841 0 0)
(1.69906 0 0)
(1.70973 0 0)
(1.72044 0 0)
(1.73118 0 0)
(1.74195 0 0)
(1.75274 0 0)
(1.76357 0 0)
(1.77444 0 0)
(1.78533 0 0)
(1.79624 0 0)
(1.80719 0 0)
(1.81817 0 0)
(1.82918 0 0)
(1.84021 0 0)
(1.85128 0 0)
(1.86237 0 0)
(1.87349 0 0)
(1.88463 0 0)
(1.89581 0 0)
(1.90701 0 0)
(1.91824 0 0)
(1.92949 0 0)
(1.94077 0 0)
(1.95208 0 0)
(1.96341 0 0)
(1.97477 0 0)
(1.98615 0 0)
(1.99756 0 0)
(2.00899 0 0)
(2.02045 0 0)
(2.03193 0 0)
(2.04344 0 0)
(2.05497 0 0)
(2.06652 0 0)
(2.0781 0 0)
(2.0897 0 0)
(2.10132 0 0)
(2.11296 0 0)
(2.12463 0 0)
(2.13632 0 0)
(2.14803 0 0)
(2.15976 0 0)
(2.17152 0 0)
(2.18329 0 0)
(2.19509 0 0)
(2.20691 0 0)
(2.21874 0 0)
(2.2306 0 0)
(2.24248 0 0)
(2.25438 0 0)
(2.26629 0 0)
(2.27823 0 0)
(2.29018 0 0)
(2.30216 0 0)
(2.31415 0 0)
(2.32616 0 0)
(2.33819 0 0)
(2.35023 0 0)
(2.3623 0 0)
(2.37438 0 0)
(2.38648 0 0)
(2.39859 0 0)
(2.41072 0 0)
(2.42287 0 0)
(2.43503 0 0)
(2.44721 0 0)
(2.45941 0 0)
(2.47162 0 0)
(2.48384 0 0)
(2.49608 0 0)
(2.50834 0 0)
(2.52061 0 0)
(2.53289 0 0)
(2.54519 0 0)
(2.55749 0 0)
(2.56982 0 0)
(2.58215 0 0)
(2.5945 0 0)
(2.60686 0 0)
(2.61923 0 0)
(2.63162 0 0)
(2.64401 0 0)
(2.65642 0 0)
(2.66883 0 0)
(2.68126 0 0)
(2.6937 0 0)
(2.70614 0 0)
(2.7186 0 0)
(2.73106 0 0)
(2.74353 0 0)
(2.75601 0 0)
(2.7685 0 0)
(2.781 0 0)
(2.7935 0 0)
(2.80601 0 0)
(2.81853 0 0)
(2.83105 0 0)
(2.84357 0 0)
(2.8561 0 0)
(2.86864 0 0)
(2.88118 0 0)
(2.89372 0 0)
(2.90627 0 0)
(2.91881 0 0)
(2.93136 0 0)
(2.94391 0 0)
(2.95646 0 0)
(2.96901 0 0)
(2.98156 0 0)
(2.99411 0 0)
(3.00666 0 0)
(3.0192 0 0)
(3.03174 0 0)
(3.04428 0 0)
(3.05681 0 0)
(3.06933 0 0)
(3.08185 0 0)
(3.09436 0 0)
(3.10686 0 0)
(3.11935 0 0)
(3.13183 0 0)
(3.1443 0 0)
(3.15676 0 0)
(3.1692 0 0)
(3.18163 0 0)
(3.19405 0 0)
(3.20644 0 0)
(3.21882 0 0)
(3.23118 0 0)
(3.24351 0 0)
(3.25583 0 0)
(3.26812 0 0)
(3.28038 0 0)
(3.29262 0 0)
(3.30482 0 0)
(3.317 0 0)
(3.32914 0 0)
(3.34125 0 0)
(3.35332 0 0)
(3.36535 0 0)
(3.37734 0 0)
(3.38929 0 0)
(3.40119 0 0)
(3.41304 0 0)
(3.42484 0 0)
(3.43658 0 0)
(3.44827 0 0)
(3.4599 0 0)
(3.47146 0 0)
(3.48296 0 0)
(3.49439 0 0)
(3.50574 0 0)
(3.51702 0 0)
(3.52821 0 0)
(3.53932 0 0)
(3.55034 0 0)
(3.56126 0 0)
(3.57208 0 0)
(3.5828 0 0)
(3.59341 0 0)
(3.60391 0 0)
(3.61428 0 0)
(3.62452 0 0)
(3.63464 0 0)
(3.64461 0 0)
(3.65444 0 0)
(3.66411 0 0)
(3.67362 0 0)
(3.68297 0 0)
(3.69213 0 0)
(3.70112 0 0)
(3.7099 0 0)
(3.71849 0 0)
(3.72686 0 0)
(3.73501 0 0)
(3.74292 0 0)
(3.75059 0 0)
(3.75801 0 0)
(3.76516 0 0)
(3.77203 0 0)
(3.7786 0 0)
(3.78487 0 0)
(3.79082 0 0)
(3.79643 0 0)
(3.8017 0 0)
(3.8066 0 0)
(3.81112 0 0)
(3.81524 0 0)
(3.81895 0 0)
(3.82222 0 0)
(3.82505 0 0)
(3.8274 0 0)
(3.82926 0 0)
(3.83061 0 0)
(3.83142 0 0)
(3.83169 0 0)
(3.83137 0 0)
(3.83046 0 0)
(3.82892 0 0)
(3.82674 0 0)
(3.82389 0 0)
(3.82034 0 0)
(3.81607 0 0)
(3.81105 0 0)
(3.80525 0 0)
(3.79866 0 0)
(3.79124 0 0)
(3.78296 0 0)
(3.7738 0 0)
(3.76373 0 0)
(3.75273 0 0)
(3.74076 0 0)
(3.72781 0 0)
(3.71384 0 0)
(3.69882 0 0)
(3.68275 0 0)
(3.66558 0 0)
(3.6473 0 0)
(3.62789 0 0)
(3.60733 0 0)
(3.58559 0 0)
(3.56266 0 0)
(3.53853 0 0)
(3.51319 0 0)
(3.48661 0 0)
(3.45881 0 0)
(3.42976 0 0)
(3.39948 0 0)
(3.36795 0 0)
(3.3352 0 0)
(3.30121 0 0)
(3.26601 0 0)
(3.22962 0 0)
(3.19204 0 0)
(3.15331 0 0)
(3.11346 0 0)
(3.07251 0 0)
(3.0305 0 0)
(2.98747 0 0)
(2.94347 0 0)
(2.89855 0 0)
(2.85275 0 0)
(2.80614 0 0)
(2.75877 0 0)
(2.71071 0 0)
(2.66202 0 0)
(2.61277 0 0)
(2.56303 0 0)
(2.51288 0 0)
(2.4624 0 0)
(2.41165 0 0)
(2.36071 0 0)
(2.30967 0 0)
(2.2586 0 0)
(2.20757 0 0)
(2.15668 0 0)
(2.10598 0 0)
(2.05556 0 0)
(2.00549 0 0)
(1.95584 0 0)
(1.90667 0 0)
(1.85806 0 0)
(1.81005 0 0)
(1.76272 0 0)
(1.71611 0 0)
(1.67027 0 0)
(1.62526 0 0)
(1.58111 0 0)
(1.53786 0 0)
(1.49555 0 0)
(1.4542 0 0)
(1.41385 0 0)
(1.37452 0 0)
(1.33622 0 0)
(1.29897 0 0)
(1.26277 0 0)
(1.22765 0 0)
(1.19359 0 0)
(1.16061 0 0)
(1.12869 0 0)
(1.09784 0 0)
(1.06804 0 0)
(1.03929 0 0)
(1.01157 0 0)
(0.984876 0 0)
(0.95918 0 0)
(0.934468 0 0)
(0.910721 0 0)
(0.887919 0 0)
(0.866041 0 0)
(0.845062 0 0)
(0.824961 0 0)
(0.805713 0 0)
(0.787293 0 0)
(0.769678 0 0)
(0.752842 0 0)
(0.736759 0 0)
(0.721406 0 0)
(0.706756 0 0)
(0.692785 0 0)
(0.679468 0 0)
(0.666781 0 0)
(0.6547 0 0)
(0.643201 0 0)
(0.632262 0 0)
(0.621859 0 0)
(0.61197 0 0)
(0.602574 0 0)
(0.59365 0 0)
(0.585177 0 0)
(0.577136 0 0)
(0.569507 0 0)
(0.562272 0 0)
(0.555413 0 0)
(0.548913 0 0)
(0.542754 0 0)
(0.536921 0 0)
(0.531398 0 0)
(0.526171 0 0)
(0.521225 0 0)
(0.516545 0 0)
(0.51212 0 0)
(0.507937 0 0)
(0.503982 0 0)
(0.500246 0 0)
(0.496716 0 0)
(0.493382 0 0)
(0.490234 0 0)
(0.487262 0 0)
(0.484458 0 0)
(0.481812 0 0)
(0.479316 0 0)
(0.476962 0 0)
(0.474742 0 0)
(0.47265 0 0)
(0.470678 0 0)
(0.468819 0 0)
(0.467069 0 0)
(0.46542 0 0)
(0.463868 0 0)
(0.462406 0 0)
(0.46103 0 0)
(0.459735 0 0)
(0.458517 0 0)
(0.457371 0 0)
(0.456293 0 0)
(0.455279 0 0)
(0.454326 0 0)
(0.45343 0 0)
(0.452588 0 0)
(0.451797 0 0)
(0.451054 0 0)
(0.450355 0 0)
(0.4497 0 0)
(0.449084 0 0)
(0.448506 0 0)
(0.447963 0 0)
(0.447454 0 0)
(0.446976 0 0)
(0.446528 0 0)
(0.446107 0 0)
(0.445713 0 0)
(0.445343 0 0)
(0.444997 0 0)
(0.444672 0 0)
(0.444367 0 0)
(0.444082 0 0)
(0.443815 0 0)
(0.443564 0 0)
(0.44333 0 0)
(0.44311 0 0)
(0.442904 0 0)
(0.442712 0 0)
(0.442532 0 0)
(0.442363 0 0)
(0.442205 0 0)
(0.442058 0 0)
(0.44192 0 0)
(0.441791 0 0)
(0.44167 0 0)
(0.441557 0 0)
(0.441452 0 0)
(0.441353 0 0)
(0.441261 0 0)
(0.441175 0 0)
(0.441094 0 0)
(0.441019 0 0)
(0.440949 0 0)
(0.440884 0 0)
(0.440822 0 0)
(0.440765 0 0)
(0.440712 0 0)
(0.440662 0 0)
(0.440616 0 0)
(0.440573 0 0)
(0.440532 0 0)
(0.440495 0 0)
(0.44046 0 0)
(0.440427 0 0)
(0.440396 0 0)
(0.440368 0 0)
(0.440341 0 0)
(0.440317 0 0)
(0.440294 0 0)
(0.440272 0 0)
(0.440252 0 0)
(0.440234 0 0)
(0.440217 0 0)
(0.4402 0 0)
(0.440185 0 0)
(0.440171 0 0)
(0.440158 0 0)
(0.440146 0 0)
(0.440135 0 0)
(0.440125 0 0)
(0.440115 0 0)
(0.440106 0 0)
(0.440098 0 0)
(0.44009 0 0)
(0.440082 0 0)
(0.440076 0 0)
(0.440069 0 0)
(0.440064 0 0)
(0.440058 0 0)
(0.440053 0 0)
(0.440048 0 0)
(0.440044 0 0)
(0.44004 0 0)
(0.440036 0 0)
(0.440033 0 0)
(0.44003 0 0)
(0.440027 0 0)
(0.440024 0 0)
(0.440021 0 0)
(0.440019 0 0)
(0.440017 0 0)
(0.440015 0 0)
(0.440013 0 0)
(0.440011 0 0)
(0.440009 0 0)
(0.440008 0 0)
(0.440006 0 0)
(0.440005 0 0)
(0.440004 0 0)
(0.440003 0 0)
(0.440002 0 0)
(0.440001 0 0)
(0.44 0 0)
(0.439999 0 0)
(0.439998 0 0)
(0.439998 0 0)
(0.439997 0 0)
(0.439996 0 0)
(0.439996 0 0)
(0.439995 0 0)
(0.439995 0 0)
(0.439994 0 0)
(0.439994 0 0)
(0.439994 0 0)
(0.439993 0 0)
(0.439993 0 0)
(0.439993 0 0)
(0.439992 0 0)
(0.439992 0 0)
(0.439992 0 0)
(0.439992 0 0)
(0.439991 0 0)
(0.439991 0 0)
(0.439991 0 0)
(0.439991 0 0)
(0.439991 0 0)
(0.439991 0 0)
(0.43999 0 0)
(0.43999 0 0)
(0.43999 0 0)
(0.43999 0 0)
(0.43999 0 0)
(0.43999 0 0)
(0.43999 0 0)
(0.43999 0 0)
(0.43999 0 0)
(0.43999 0 0)
(0.43999 0 0)
(0.43999 0 0)
(0.439989 0 0)
(0.439989 0 0)
(0.439989 0 0)
(0.439989 0 0)
)
;

boundaryField
{
    topWall
    {
        type            empty;
    }
    bottomWall
    {
        type            empty;
    }
    leftAndRight_half1
    {
        type            cyclic;
    }
    leftAndRight_half0
    {
        type            cyclic;
    }
    frontAndBack
    {
        type            empty;
    }
}


// ************************************************************************* //
