/*--------------------------------*- C++ -*----------------------------------*\
  =========                 |
  \\      /  F ield         | OpenFOAM: The Open Source CFD Toolbox
   \\    /   O peration     | Website:  https://openfoam.org
    \\  /    A nd           | Version:  9
     \\/     M anipulation  |
\*---------------------------------------------------------------------------*/
FoamFile
{
    format      ascii;
    class       volVectorField;
    location    "3.7";
    object      U;
}
// * * * * * * * * * * * * * * * * * * * * * * * * * * * * * * * * * * * * * //

dimensions      [0 1 -1 0 0 0 0];

internalField   nonuniform List<vector> 
1000
(
(0.131767 0 0)
(0.131693 0 0)
(0.131767 0 0)
(0.131691 0 0)
(0.131768 0 0)
(0.13169 0 0)
(0.131768 0 0)
(0.131688 0 0)
(0.131769 0 0)
(0.131686 0 0)
(0.131769 0 0)
(0.131685 0 0)
(0.13177 0 0)
(0.131684 0 0)
(0.13177 0 0)
(0.131682 0 0)
(0.13177 0 0)
(0.131681 0 0)
(0.131771 0 0)
(0.13168 0 0)
(0.131771 0 0)
(0.131679 0 0)
(0.131771 0 0)
(0.131678 0 0)
(0.131771 0 0)
(0.131677 0 0)
(0.131772 0 0)
(0.131676 0 0)
(0.131772 0 0)
(0.131676 0 0)
(0.131772 0 0)
(0.131676 0 0)
(0.131773 0 0)
(0.131676 0 0)
(0.131773 0 0)
(0.131676 0 0)
(0.131774 0 0)
(0.131677 0 0)
(0.131775 0 0)
(0.131678 0 0)
(0.131776 0 0)
(0.131679 0 0)
(0.131777 0 0)
(0.131681 0 0)
(0.131778 0 0)
(0.131683 0 0)
(0.13178 0 0)
(0.131685 0 0)
(0.131782 0 0)
(0.131689 0 0)
(0.131784 0 0)
(0.131692 0 0)
(0.131786 0 0)
(0.131696 0 0)
(0.131789 0 0)
(0.131701 0 0)
(0.131793 0 0)
(0.131707 0 0)
(0.131797 0 0)
(0.131713 0 0)
(0.131802 0 0)
(0.13172 0 0)
(0.131807 0 0)
(0.131727 0 0)
(0.131813 0 0)
(0.131736 0 0)
(0.13182 0 0)
(0.131746 0 0)
(0.131828 0 0)
(0.131756 0 0)
(0.131836 0 0)
(0.131768 0 0)
(0.131846 0 0)
(0.13178 0 0)
(0.131856 0 0)
(0.131794 0 0)
(0.131868 0 0)
(0.131809 0 0)
(0.131881 0 0)
(0.131825 0 0)
(0.131895 0 0)
(0.131842 0 0)
(0.131911 0 0)
(0.13186 0 0)
(0.13193 0 0)
(0.131877 0 0)
(0.131954 0 0)
(0.131889 0 0)
(0.13199 0 0)
(0.13189 0 0)
(0.132046 0 0)
(0.131875 0 0)
(0.132125 0 0)
(0.131853 0 0)
(0.132213 0 0)
(0.131863 0 0)
(0.132277 0 0)
(0.131956 0 0)
(0.132307 0 0)
(0.132123 0 0)
(0.132361 0 0)
(0.132293 0 0)
(0.132464 0 0)
(0.132434 0 0)
(0.132579 0 0)
(0.132549 0 0)
(0.132677 0 0)
(0.132638 0 0)
(0.132749 0 0)
(0.132702 0 0)
(0.132798 0 0)
(0.132748 0 0)
(0.132833 0 0)
(0.132783 0 0)
(0.13286 0 0)
(0.132812 0 0)
(0.132883 0 0)
(0.132838 0 0)
(0.132905 0 0)
(0.132865 0 0)
(0.132927 0 0)
(0.132892 0 0)
(0.132951 0 0)
(0.13292 0 0)
(0.132976 0 0)
(0.132948 0 0)
(0.133002 0 0)
(0.132978 0 0)
(0.133028 0 0)
(0.133008 0 0)
(0.133056 0 0)
(0.13304 0 0)
(0.133085 0 0)
(0.133072 0 0)
(0.133115 0 0)
(0.133105 0 0)
(0.133146 0 0)
(0.133138 0 0)
(0.133177 0 0)
(0.133173 0 0)
(0.13321 0 0)
(0.133207 0 0)
(0.133242 0 0)
(0.133242 0 0)
(0.133276 0 0)
(0.133278 0 0)
(0.13331 0 0)
(0.133314 0 0)
(0.133344 0 0)
(0.133349 0 0)
(0.133378 0 0)
(0.133385 0 0)
(0.133413 0 0)
(0.133421 0 0)
(0.133448 0 0)
(0.133457 0 0)
(0.133482 0 0)
(0.133493 0 0)
(0.133516 0 0)
(0.133528 0 0)
(0.133551 0 0)
(0.133563 0 0)
(0.133584 0 0)
(0.133597 0 0)
(0.133617 0 0)
(0.13363 0 0)
(0.13365 0 0)
(0.133663 0 0)
(0.133681 0 0)
(0.133695 0 0)
(0.133712 0 0)
(0.133725 0 0)
(0.133741 0 0)
(0.133755 0 0)
(0.13377 0 0)
(0.133783 0 0)
(0.133797 0 0)
(0.13381 0 0)
(0.133823 0 0)
(0.133835 0 0)
(0.133847 0 0)
(0.133858 0 0)
(0.133869 0 0)
(0.13388 0 0)
(0.133889 0 0)
(0.133901 0 0)
(0.133907 0 0)
(0.133919 0 0)
(0.133922 0 0)
(0.133937 0 0)
(0.133936 0 0)
(0.133951 0 0)
(0.133947 0 0)
(0.133962 0 0)
(0.133958 0 0)
(0.13397 0 0)
(0.133969 0 0)
(0.133978 0 0)
(0.13398 0 0)
(0.133991 0 0)
(0.133996 0 0)
(0.134008 0 0)
(0.13401 0 0)
(0.134007 0 0)
(0.133976 0 0)
(0.133924 0 0)
(0.133843 0 0)
(0.133755 0 0)
(0.133661 0 0)
(0.133585 0 0)
(0.133521 0 0)
(0.133479 0 0)
(0.133448 0 0)
(0.133432 0 0)
(0.13342 0 0)
(0.133416 0 0)
(0.133411 0 0)
(0.133411 0 0)
(0.133408 0 0)
(0.133409 0 0)
(0.133406 0 0)
(0.133406 0 0)
(0.133402 0 0)
(0.133401 0 0)
(0.133397 0 0)
(0.133395 0 0)
(0.133389 0 0)
(0.133386 0 0)
(0.13338 0 0)
(0.133376 0 0)
(0.133368 0 0)
(0.133363 0 0)
(0.133355 0 0)
(0.133349 0 0)
(0.13334 0 0)
(0.133333 0 0)
(0.133323 0 0)
(0.133315 0 0)
(0.133304 0 0)
(0.133295 0 0)
(0.133284 0 0)
(0.133274 0 0)
(0.133262 0 0)
(0.133251 0 0)
(0.133238 0 0)
(0.133226 0 0)
(0.133213 0 0)
(0.133201 0 0)
(0.133187 0 0)
(0.133174 0 0)
(0.133159 0 0)
(0.133145 0 0)
(0.13313 0 0)
(0.133116 0 0)
(0.1331 0 0)
(0.133086 0 0)
(0.13307 0 0)
(0.133054 0 0)
(0.133038 0 0)
(0.133022 0 0)
(0.133005 0 0)
(0.132989 0 0)
(0.132972 0 0)
(0.132956 0 0)
(0.132938 0 0)
(0.132921 0 0)
(0.132904 0 0)
(0.132887 0 0)
(0.132869 0 0)
(0.132852 0 0)
(0.132834 0 0)
(0.132817 0 0)
(0.132799 0 0)
(0.132781 0 0)
(0.132763 0 0)
(0.132746 0 0)
(0.132728 0 0)
(0.13271 0 0)
(0.132692 0 0)
(0.132675 0 0)
(0.132657 0 0)
(0.13264 0 0)
(0.132622 0 0)
(0.132605 0 0)
(0.132587 0 0)
(0.13257 0 0)
(0.132553 0 0)
(0.132535 0 0)
(0.132518 0 0)
(0.132502 0 0)
(0.132485 0 0)
(0.132468 0 0)
(0.132452 0 0)
(0.132435 0 0)
(0.132419 0 0)
(0.132403 0 0)
(0.132387 0 0)
(0.132372 0 0)
(0.132356 0 0)
(0.132341 0 0)
(0.132326 0 0)
(0.132311 0 0)
(0.132296 0 0)
(0.132282 0 0)
(0.132267 0 0)
(0.132253 0 0)
(0.13224 0 0)
(0.132226 0 0)
(0.132212 0 0)
(0.132199 0 0)
(0.132186 0 0)
(0.132173 0 0)
(0.132161 0 0)
(0.132149 0 0)
(0.132136 0 0)
(0.132125 0 0)
(0.132113 0 0)
(0.132102 0 0)
(0.13209 0 0)
(0.132079 0 0)
(0.132069 0 0)
(0.132058 0 0)
(0.132048 0 0)
(0.132038 0 0)
(0.132028 0 0)
(0.132019 0 0)
(0.132009 0 0)
(0.132 0 0)
(0.131991 0 0)
(0.131982 0 0)
(0.131974 0 0)
(0.131966 0 0)
(0.131958 0 0)
(0.13195 0 0)
(0.131942 0 0)
(0.131935 0 0)
(0.131928 0 0)
(0.131921 0 0)
(0.131914 0 0)
(0.131907 0 0)
(0.131901 0 0)
(0.131895 0 0)
(0.131889 0 0)
(0.131883 0 0)
(0.131877 0 0)
(0.131872 0 0)
(0.131866 0 0)
(0.131861 0 0)
(0.131856 0 0)
(0.131851 0 0)
(0.131847 0 0)
(0.131842 0 0)
(0.131838 0 0)
(0.131834 0 0)
(0.13183 0 0)
(0.131826 0 0)
(0.131822 0 0)
(0.131818 0 0)
(0.131815 0 0)
(0.131811 0 0)
(0.131808 0 0)
(0.131805 0 0)
(0.131802 0 0)
(0.131799 0 0)
(0.131796 0 0)
(0.131794 0 0)
(0.131791 0 0)
(0.131789 0 0)
(0.131786 0 0)
(0.131784 0 0)
(0.131782 0 0)
(0.13178 0 0)
(0.131778 0 0)
(0.131776 0 0)
(0.131774 0 0)
(0.131772 0 0)
(0.13177 0 0)
(0.131769 0 0)
(0.131767 0 0)
(0.131766 0 0)
(0.131764 0 0)
(0.131763 0 0)
(0.131762 0 0)
(0.13176 0 0)
(0.131759 0 0)
(0.131758 0 0)
(0.131757 0 0)
(0.131756 0 0)
(0.131755 0 0)
(0.131754 0 0)
(0.131753 0 0)
(0.131752 0 0)
(0.131752 0 0)
(0.131751 0 0)
(0.13175 0 0)
(0.131749 0 0)
(0.131749 0 0)
(0.131748 0 0)
(0.131748 0 0)
(0.131747 0 0)
(0.131747 0 0)
(0.131746 0 0)
(0.131746 0 0)
(0.131745 0 0)
(0.131745 0 0)
(0.131744 0 0)
(0.131744 0 0)
(0.131744 0 0)
(0.131743 0 0)
(0.131743 0 0)
(0.131743 0 0)
(0.131742 0 0)
(0.131742 0 0)
(0.131742 0 0)
(0.131742 0 0)
(0.131741 0 0)
(0.131741 0 0)
(0.131741 0 0)
(0.131741 0 0)
(0.131741 0 0)
(0.13174 0 0)
(0.13174 0 0)
(0.13174 0 0)
(0.13174 0 0)
(0.13174 0 0)
(0.13174 0 0)
(0.13174 0 0)
(0.131739 0 0)
(0.131739 0 0)
(0.131739 0 0)
(0.131739 0 0)
(0.131739 0 0)
(0.131739 0 0)
(0.131739 0 0)
(0.131739 0 0)
(0.131739 0 0)
(0.131739 0 0)
(0.131739 0 0)
(0.131739 0 0)
(0.131739 0 0)
(0.131739 0 0)
(0.131739 0 0)
(0.131738 0 0)
(0.131738 0 0)
(0.131738 0 0)
(0.131738 0 0)
(0.131738 0 0)
(0.131738 0 0)
(0.131738 0 0)
(0.131738 0 0)
(0.131738 0 0)
(0.131738 0 0)
(0.131738 0 0)
(0.131738 0 0)
(0.131738 0 0)
(0.131738 0 0)
(0.131738 0 0)
(0.131738 0 0)
(0.131738 0 0)
(0.131738 0 0)
(0.131738 0 0)
(0.131738 0 0)
(0.131738 0 0)
(0.131738 0 0)
(0.131738 0 0)
(0.131738 0 0)
(0.131738 0 0)
(0.131738 0 0)
(0.131738 0 0)
(0.131738 0 0)
(0.131738 0 0)
(0.131738 0 0)
(0.131738 0 0)
(0.131738 0 0)
(0.131738 0 0)
(0.131738 0 0)
(0.131738 0 0)
(0.131738 0 0)
(0.131738 0 0)
(0.131738 0 0)
(0.131738 0 0)
(0.131738 0 0)
(0.131738 0 0)
(0.131738 0 0)
(0.131738 0 0)
(0.131738 0 0)
(0.131738 0 0)
(0.131738 0 0)
(0.131738 0 0)
(0.131738 0 0)
(0.131738 0 0)
(0.131738 0 0)
(0.131738 0 0)
(0.131738 0 0)
(0.131738 0 0)
(0.131738 0 0)
(0.131738 0 0)
(0.131738 0 0)
(0.131738 0 0)
(0.131738 0 0)
(0.131738 0 0)
(0.131738 0 0)
(0.131738 0 0)
(0.131738 0 0)
(0.131738 0 0)
(0.131738 0 0)
(0.131738 0 0)
(0.131738 0 0)
(0.131738 0 0)
(0.131738 0 0)
(0.131738 0 0)
(0.131738 0 0)
(0.131738 0 0)
(0.131738 0 0)
(0.131738 0 0)
(0.131738 0 0)
(0.131738 0 0)
(0.131738 0 0)
(0.131738 0 0)
(0.131738 0 0)
(0.131738 0 0)
(0.131738 0 0)
(0.131738 0 0)
(0.131738 0 0)
(0.131738 0 0)
(0.131738 0 0)
(0.131738 0 0)
(0.131738 0 0)
(0.131738 0 0)
(0.131738 0 0)
(0.131738 0 0)
(0.131738 0 0)
(0.131738 0 0)
(0.131738 0 0)
(0.131738 0 0)
(0.131738 0 0)
(0.131738 0 0)
(0.131738 0 0)
(0.131738 0 0)
(0.131738 0 0)
(0.131738 0 0)
(0.131738 0 0)
(0.131738 0 0)
(0.131738 0 0)
(0.131738 0 0)
(0.131738 0 0)
(0.131738 0 0)
(0.131738 0 0)
(0.131738 0 0)
(0.131738 0 0)
(0.131738 0 0)
(0.131738 0 0)
(0.131738 0 0)
(0.131738 0 0)
(0.131738 0 0)
(0.131738 0 0)
(0.131738 0 0)
(0.131738 0 0)
(0.131738 0 0)
(0.131738 0 0)
(0.131738 0 0)
(0.131738 0 0)
(0.131738 0 0)
(0.131738 0 0)
(0.131738 0 0)
(0.131738 0 0)
(0.131738 0 0)
(0.131738 0 0)
(0.131738 0 0)
(0.131738 0 0)
(0.131738 0 0)
(0.131738 0 0)
(0.131738 0 0)
(0.131738 0 0)
(0.131738 0 0)
(0.131738 0 0)
(0.131738 0 0)
(0.131738 0 0)
(0.131738 0 0)
(0.131738 0 0)
(0.131738 0 0)
(0.131738 0 0)
(0.131738 0 0)
(0.131738 0 0)
(0.131738 0 0)
(0.131738 0 0)
(0.131738 0 0)
(0.131738 0 0)
(0.131738 0 0)
(0.131738 0 0)
(0.131738 0 0)
(0.131738 0 0)
(0.131738 0 0)
(0.131738 0 0)
(0.131738 0 0)
(0.131738 0 0)
(0.131738 0 0)
(0.131738 0 0)
(0.131738 0 0)
(0.131738 0 0)
(0.131738 0 0)
(0.131738 0 0)
(0.131738 0 0)
(0.131738 0 0)
(0.131738 0 0)
(0.131738 0 0)
(0.131738 0 0)
(0.131738 0 0)
(0.131738 0 0)
(0.131738 0 0)
(0.131738 0 0)
(0.131738 0 0)
(0.131738 0 0)
(0.131738 0 0)
(0.131738 0 0)
(0.131738 0 0)
(0.131738 0 0)
(0.131738 0 0)
(0.131738 0 0)
(0.131738 0 0)
(0.131738 0 0)
(0.131738 0 0)
(0.131738 0 0)
(0.131738 0 0)
(0.131738 0 0)
(0.131738 0 0)
(0.131738 0 0)
(0.131738 0 0)
(0.131738 0 0)
(0.131738 0 0)
(0.131738 0 0)
(0.131738 0 0)
(0.131738 0 0)
(0.131738 0 0)
(0.131738 0 0)
(0.131738 0 0)
(0.131738 0 0)
(0.131738 0 0)
(0.131738 0 0)
(0.131738 0 0)
(0.131738 0 0)
(0.131738 0 0)
(0.131738 0 0)
(0.131738 0 0)
(0.131738 0 0)
(0.131738 0 0)
(0.131738 0 0)
(0.131738 0 0)
(0.131738 0 0)
(0.131738 0 0)
(0.131738 0 0)
(0.131738 0 0)
(0.131738 0 0)
(0.131738 0 0)
(0.131738 0 0)
(0.131738 0 0)
(0.131738 0 0)
(0.131738 0 0)
(0.131738 0 0)
(0.131738 0 0)
(0.131738 0 0)
(0.131738 0 0)
(0.131738 0 0)
(0.131738 0 0)
(0.131738 0 0)
(0.131738 0 0)
(0.131738 0 0)
(0.131738 0 0)
(0.131738 0 0)
(0.131738 0 0)
(0.131738 0 0)
(0.131738 0 0)
(0.131738 0 0)
(0.131738 0 0)
(0.131738 0 0)
(0.131738 0 0)
(0.131738 0 0)
(0.131738 0 0)
(0.131738 0 0)
(0.131738 0 0)
(0.131738 0 0)
(0.131738 0 0)
(0.131738 0 0)
(0.131738 0 0)
(0.131738 0 0)
(0.131738 0 0)
(0.131738 0 0)
(0.131738 0 0)
(0.131738 0 0)
(0.131738 0 0)
(0.131738 0 0)
(0.131738 0 0)
(0.131738 0 0)
(0.131738 0 0)
(0.131738 0 0)
(0.131738 0 0)
(0.131738 0 0)
(0.131738 0 0)
(0.131738 0 0)
(0.131738 0 0)
(0.131738 0 0)
(0.131738 0 0)
(0.131738 0 0)
(0.131738 0 0)
(0.131738 0 0)
(0.131738 0 0)
(0.131738 0 0)
(0.131738 0 0)
(0.131738 0 0)
(0.131738 0 0)
(0.131738 0 0)
(0.131738 0 0)
(0.131738 0 0)
(0.131738 0 0)
(0.131738 0 0)
(0.131738 0 0)
(0.131738 0 0)
(0.131738 0 0)
(0.131738 0 0)
(0.131738 0 0)
(0.131738 0 0)
(0.131738 0 0)
(0.131738 0 0)
(0.131738 0 0)
(0.131738 0 0)
(0.131738 0 0)
(0.131738 0 0)
(0.131738 0 0)
(0.131738 0 0)
(0.131738 0 0)
(0.131738 0 0)
(0.131738 0 0)
(0.131738 0 0)
(0.131738 0 0)
(0.131738 0 0)
(0.131738 0 0)
(0.131738 0 0)
(0.131738 0 0)
(0.131738 0 0)
(0.131738 0 0)
(0.131738 0 0)
(0.131738 0 0)
(0.131738 0 0)
(0.131738 0 0)
(0.131738 0 0)
(0.131738 0 0)
(0.131738 0 0)
(0.131738 0 0)
(0.131738 0 0)
(0.131738 0 0)
(0.131738 0 0)
(0.131738 0 0)
(0.131738 0 0)
(0.131738 0 0)
(0.131738 0 0)
(0.131738 0 0)
(0.131738 0 0)
(0.131738 0 0)
(0.131738 0 0)
(0.131738 0 0)
(0.131738 0 0)
(0.131738 0 0)
(0.131738 0 0)
(0.131738 0 0)
(0.131738 0 0)
(0.131738 0 0)
(0.131738 0 0)
(0.131738 0 0)
(0.131738 0 0)
(0.131738 0 0)
(0.131738 0 0)
(0.131738 0 0)
(0.131738 0 0)
(0.131738 0 0)
(0.131738 0 0)
(0.131738 0 0)
(0.131738 0 0)
(0.131738 0 0)
(0.131738 0 0)
(0.131738 0 0)
(0.131738 0 0)
(0.131738 0 0)
(0.131738 0 0)
(0.131738 0 0)
(0.131738 0 0)
(0.131738 0 0)
(0.131738 0 0)
(0.131738 0 0)
(0.131738 0 0)
(0.131738 0 0)
(0.131738 0 0)
(0.131738 0 0)
(0.131738 0 0)
(0.131738 0 0)
(0.131738 0 0)
(0.131738 0 0)
(0.131738 0 0)
(0.131738 0 0)
(0.131738 0 0)
(0.131738 0 0)
(0.131738 0 0)
(0.131738 0 0)
(0.131738 0 0)
(0.131738 0 0)
(0.131738 0 0)
(0.131738 0 0)
(0.131738 0 0)
(0.131738 0 0)
(0.131738 0 0)
(0.131738 0 0)
(0.131738 0 0)
(0.131738 0 0)
(0.131738 0 0)
(0.131738 0 0)
(0.131738 0 0)
(0.131738 0 0)
(0.131738 0 0)
(0.131738 0 0)
(0.131738 0 0)
(0.131738 0 0)
(0.131738 0 0)
(0.131738 0 0)
(0.131738 0 0)
(0.131738 0 0)
(0.131738 0 0)
(0.131738 0 0)
(0.131738 0 0)
(0.131738 0 0)
(0.131738 0 0)
(0.131738 0 0)
(0.131738 0 0)
(0.131738 0 0)
(0.131738 0 0)
(0.131738 0 0)
(0.131738 0 0)
(0.131738 0 0)
(0.131738 0 0)
(0.131738 0 0)
(0.131738 0 0)
(0.131738 0 0)
(0.131738 0 0)
(0.131738 0 0)
(0.131738 0 0)
(0.131738 0 0)
(0.131738 0 0)
(0.131738 0 0)
(0.131738 0 0)
(0.131738 0 0)
(0.131738 0 0)
(0.131738 0 0)
(0.131738 0 0)
(0.131738 0 0)
(0.131738 0 0)
(0.131738 0 0)
(0.131738 0 0)
(0.131738 0 0)
(0.131738 0 0)
(0.131738 0 0)
(0.131738 0 0)
(0.131738 0 0)
(0.131738 0 0)
(0.131738 0 0)
(0.131738 0 0)
(0.131738 0 0)
(0.131738 0 0)
(0.131738 0 0)
(0.131738 0 0)
(0.131738 0 0)
(0.131738 0 0)
(0.131738 0 0)
(0.131738 0 0)
(0.131738 0 0)
(0.131738 0 0)
(0.131738 0 0)
(0.131738 0 0)
(0.131738 0 0)
(0.131738 0 0)
(0.131738 0 0)
(0.131738 0 0)
(0.131738 0 0)
(0.131738 0 0)
(0.131738 0 0)
(0.131738 0 0)
(0.131738 0 0)
(0.131738 0 0)
(0.131738 0 0)
(0.131738 0 0)
(0.131737 0 0)
(0.131739 0 0)
(0.131737 0 0)
(0.131739 0 0)
(0.131737 0 0)
(0.131739 0 0)
(0.131737 0 0)
(0.131739 0 0)
(0.131737 0 0)
(0.131739 0 0)
(0.131737 0 0)
(0.131739 0 0)
(0.131737 0 0)
(0.131739 0 0)
(0.131737 0 0)
(0.131739 0 0)
(0.131737 0 0)
(0.131739 0 0)
(0.131737 0 0)
(0.131739 0 0)
(0.131736 0 0)
(0.13174 0 0)
(0.131736 0 0)
(0.13174 0 0)
(0.131736 0 0)
(0.13174 0 0)
(0.131736 0 0)
(0.13174 0 0)
(0.131736 0 0)
(0.13174 0 0)
(0.131735 0 0)
(0.131741 0 0)
(0.131735 0 0)
(0.131741 0 0)
(0.131735 0 0)
(0.131741 0 0)
(0.131735 0 0)
(0.131741 0 0)
(0.131734 0 0)
(0.131742 0 0)
(0.131734 0 0)
(0.131742 0 0)
(0.131733 0 0)
(0.131742 0 0)
(0.131733 0 0)
(0.131743 0 0)
(0.131733 0 0)
(0.131743 0 0)
(0.131732 0 0)
(0.131744 0 0)
(0.131732 0 0)
(0.131744 0 0)
(0.131731 0 0)
(0.131745 0 0)
(0.13173 0 0)
(0.131745 0 0)
(0.13173 0 0)
(0.131746 0 0)
(0.131729 0 0)
(0.131746 0 0)
(0.131728 0 0)
(0.131747 0 0)
(0.131728 0 0)
(0.131747 0 0)
(0.131727 0 0)
(0.131748 0 0)
(0.131726 0 0)
(0.131749 0 0)
(0.131725 0 0)
(0.131749 0 0)
(0.131724 0 0)
(0.13175 0 0)
(0.131723 0 0)
(0.131751 0 0)
(0.131722 0 0)
(0.131752 0 0)
(0.131721 0 0)
(0.131752 0 0)
(0.13172 0 0)
(0.131753 0 0)
(0.131719 0 0)
(0.131754 0 0)
(0.131717 0 0)
(0.131755 0 0)
(0.131716 0 0)
(0.131756 0 0)
(0.131715 0 0)
(0.131757 0 0)
(0.131714 0 0)
(0.131757 0 0)
(0.131712 0 0)
(0.131758 0 0)
(0.131711 0 0)
(0.131759 0 0)
(0.131709 0 0)
(0.13176 0 0)
(0.131708 0 0)
(0.131761 0 0)
(0.131706 0 0)
(0.131762 0 0)
(0.131705 0 0)
(0.131762 0 0)
(0.131703 0 0)
(0.131763 0 0)
(0.131701 0 0)
(0.131764 0 0)
(0.1317 0 0)
(0.131765 0 0)
(0.131698 0 0)
(0.131765 0 0)
(0.131696 0 0)
(0.131766 0 0)
(0.131695 0 0)
)
;

boundaryField
{
    topWall
    {
        type            empty;
    }
    bottomWall
    {
        type            empty;
    }
    leftAndRight_half1
    {
        type            cyclic;
    }
    leftAndRight_half0
    {
        type            cyclic;
    }
    frontAndBack
    {
        type            empty;
    }
}


// ************************************************************************* //
