/*--------------------------------*- C++ -*----------------------------------*\
  =========                 |
  \\      /  F ield         | OpenFOAM: The Open Source CFD Toolbox
   \\    /   O peration     | Website:  https://openfoam.org
    \\  /    A nd           | Version:  9
     \\/     M anipulation  |
\*---------------------------------------------------------------------------*/
FoamFile
{
    format      ascii;
    class       volScalarField;
    location    "0.9";
    object      f_0;
}
// * * * * * * * * * * * * * * * * * * * * * * * * * * * * * * * * * * * * * //

dimensions      [1 -3 0 0 0 0 0];

internalField   nonuniform List<scalar> 
1000
(
666.667
666.667
666.667
666.667
666.667
666.667
666.667
666.667
666.667
666.667
666.667
666.667
666.667
666.667
666.667
666.667
666.667
666.667
666.667
666.667
666.667
666.667
666.667
666.667
666.667
666.667
666.667
666.667
666.667
666.667
666.667
666.667
666.667
666.667
666.667
666.667
666.667
666.667
666.667
666.667
666.667
666.667
666.667
666.667
666.667
666.667
666.667
666.667
666.667
666.667
666.667
666.667
666.667
666.667
666.667
666.667
666.667
666.667
666.667
666.667
666.667
666.667
666.667
666.667
666.667
666.667
666.667
666.667
666.667
666.667
666.667
666.667
666.667
666.667
666.667
666.667
666.667
666.667
666.667
666.667
666.667
666.667
666.667
666.667
666.667
666.667
666.667
666.667
666.667
666.667
666.667
666.667
666.667
666.667
666.667
666.667
666.667
666.667
666.667
666.667
666.667
666.667
666.667
666.667
666.667
666.667
666.667
666.667
666.667
666.667
666.667
666.667
666.667
666.667
666.667
666.667
666.667
666.667
666.667
666.667
666.667
666.667
666.667
666.667
666.667
666.667
666.667
666.667
666.667
666.667
666.667
666.667
666.667
666.667
666.667
666.667
666.667
666.667
666.667
666.667
666.667
666.667
666.667
666.667
666.667
666.667
666.667
666.667
666.666
666.666
666.666
666.666
666.666
666.666
666.666
666.666
666.666
666.666
666.666
666.666
666.666
666.666
666.666
666.666
666.666
666.666
666.666
666.666
666.666
666.666
666.666
666.666
666.666
666.666
666.666
666.666
666.666
666.666
666.666
666.666
666.666
666.666
666.666
666.666
666.666
666.666
666.666
666.666
666.666
666.666
666.666
666.666
666.666
666.666
666.666
666.666
666.666
666.666
666.666
666.666
666.666
666.666
666.666
666.666
666.666
666.666
666.666
666.665
666.665
666.665
666.665
666.665
666.665
666.665
666.665
666.665
666.665
666.665
666.665
666.665
666.665
666.665
666.665
666.665
666.665
666.665
666.665
666.665
666.665
666.664
666.664
666.664
666.664
666.664
666.664
666.664
666.664
666.664
666.664
666.664
666.664
666.664
666.664
666.664
666.663
666.663
666.663
666.663
666.663
666.663
666.663
666.663
666.663
666.663
666.663
666.662
666.662
666.662
666.662
666.662
666.662
666.662
666.662
666.662
666.662
666.661
666.661
666.661
666.661
666.661
666.661
666.661
666.661
666.66
666.66
666.66
666.66
666.66
666.66
666.66
666.659
666.659
666.659
666.659
666.659
666.659
666.659
666.658
666.658
666.658
666.658
666.658
666.658
666.657
666.657
666.657
666.657
666.657
666.656
666.656
666.656
666.656
666.656
666.655
666.655
666.655
666.655
666.655
666.654
666.654
666.654
666.654
666.654
666.653
666.653
666.653
666.653
666.653
666.652
666.652
666.652
666.652
666.651
666.651
666.651
666.651
666.65
666.65
666.65
666.65
666.649
666.649
666.649
666.649
666.648
666.648
666.648
666.648
666.647
666.647
666.647
666.647
666.646
666.646
666.646
666.645
666.645
666.645
666.645
666.644
666.644
666.644
666.643
666.643
666.643
666.643
666.642
666.642
666.642
666.641
666.641
666.641
666.64
666.64
666.64
666.64
666.639
666.639
666.639
666.638
666.638
666.638
666.637
666.637
666.637
666.636
666.636
666.636
666.635
666.635
666.635
666.635
666.634
666.634
666.634
666.633
666.633
666.633
666.632
666.632
666.632
666.631
666.631
666.631
666.63
666.63
666.63
666.629
666.629
666.629
666.628
666.628
666.628
666.628
666.627
666.627
666.627
666.626
666.626
666.626
666.625
666.625
666.625
666.624
666.624
666.624
666.623
666.623
666.623
666.622
666.622
666.622
666.621
666.621
666.621
666.621
666.62
666.62
666.62
666.619
666.619
666.619
666.618
666.618
666.618
666.617
666.617
666.617
666.617
666.616
666.616
666.616
666.615
666.615
666.615
666.615
666.614
666.614
666.614
666.613
666.613
666.613
666.612
666.612
666.612
666.612
666.611
666.611
666.611
666.611
666.61
666.61
666.61
666.609
666.609
666.609
666.609
666.608
666.608
666.608
666.608
666.607
666.607
666.607
666.607
666.606
666.606
666.606
666.605
666.605
666.605
666.605
666.604
666.604
666.604
666.604
666.604
666.603
666.603
666.603
666.603
666.602
666.602
666.602
666.602
666.601
666.601
666.601
666.601
666.6
666.6
666.6
666.6
666.6
666.599
666.599
666.599
666.599
666.599
666.598
666.598
666.598
666.598
666.597
666.597
666.597
666.597
666.597
666.596
666.596
666.596
666.596
666.596
666.595
666.595
666.595
666.595
666.595
666.595
666.594
666.594
666.594
666.594
666.594
666.593
666.593
666.593
666.593
666.593
666.593
666.592
666.592
666.592
666.592
666.592
666.592
666.591
666.591
666.591
666.591
666.591
666.591
666.59
666.59
666.59
666.59
666.59
666.59
666.59
666.589
666.589
666.589
666.589
666.589
666.589
666.589
666.588
666.588
666.588
666.588
666.588
666.588
666.588
666.587
666.587
666.587
666.587
666.587
666.587
666.587
666.587
666.586
666.586
666.586
666.586
666.586
666.586
666.586
666.586
666.585
666.585
666.585
666.585
666.585
666.585
666.585
666.585
666.585
666.585
666.584
666.584
666.584
666.584
666.584
666.584
666.584
666.584
666.584
666.584
666.583
666.583
666.583
666.583
666.583
666.583
666.583
666.583
666.583
666.583
666.583
666.583
666.582
666.582
666.582
666.582
666.582
666.582
666.582
666.582
666.582
666.582
666.582
666.582
666.582
666.582
666.582
666.581
666.581
666.581
666.581
666.581
666.581
666.581
666.581
666.581
666.581
666.581
666.581
666.581
666.581
666.581
666.581
666.581
666.581
666.581
666.581
666.581
666.581
666.581
666.581
666.581
666.581
666.581
666.581
666.581
666.581
666.581
666.581
666.581
666.581
666.581
666.581
666.581
666.581
666.581
666.581
666.581
666.581
666.581
666.581
666.581
666.581
666.582
666.582
666.582
666.582
666.582
666.582
666.582
666.582
666.582
666.583
666.583
666.583
666.583
666.583
666.583
666.584
666.584
666.584
666.584
666.584
666.585
666.585
666.585
666.585
666.586
666.586
666.586
666.587
666.587
666.587
666.588
666.588
666.588
666.589
666.589
666.59
666.59
666.591
666.591
666.592
666.592
666.593
666.594
666.594
666.595
666.596
666.596
666.597
666.598
666.599
666.599
666.6
666.601
666.602
666.603
666.604
666.605
666.606
666.607
666.609
666.61
666.611
666.613
666.614
666.615
666.617
666.618
666.62
666.622
666.623
666.625
666.627
666.629
666.631
666.633
666.635
666.638
666.64
666.642
666.645
666.647
666.65
666.653
666.656
666.659
666.662
666.665
666.668
666.671
666.675
666.678
666.682
666.686
666.69
666.694
666.698
666.703
666.707
666.712
666.716
666.721
666.726
666.731
666.736
666.742
666.747
666.753
666.758
666.764
666.77
666.776
666.782
666.789
666.795
666.802
666.808
666.815
666.822
666.828
666.835
666.842
666.849
666.856
666.863
666.87
666.878
666.885
666.892
666.899
666.906
666.912
666.919
666.926
666.933
666.939
666.945
666.951
666.957
666.963
666.969
666.974
666.979
666.984
666.989
666.993
666.997
667.001
667.004
667.007
667.01
667.012
667.014
667.015
667.017
667.017
667.018
667.018
667.018
667.017
667.016
667.015
667.013
667.011
667.009
667.006
667.003
667
666.996
666.992
666.988
666.984
666.979
666.975
666.97
666.964
666.959
666.954
666.948
666.942
666.936
666.931
666.925
666.919
666.912
666.906
666.9
666.894
666.888
666.882
666.876
666.87
666.864
666.858
666.852
666.846
666.841
666.835
666.83
666.824
666.819
666.814
666.809
666.804
666.799
666.794
666.789
666.785
666.781
666.776
666.772
666.768
666.764
666.76
666.757
666.753
666.75
666.746
666.743
666.74
666.737
666.734
666.731
666.729
666.726
666.723
666.721
666.719
666.716
666.714
666.712
666.71
666.708
666.706
666.705
666.703
666.701
666.7
666.698
666.697
666.695
666.694
666.693
666.692
666.691
666.689
666.688
666.687
666.686
666.685
666.685
666.684
666.683
666.682
666.681
666.681
666.68
666.679
666.679
666.678
666.678
666.677
666.677
666.676
666.676
666.675
666.675
666.674
666.674
666.674
666.673
666.673
666.673
666.672
666.672
666.672
666.671
666.671
666.671
666.671
666.671
666.67
666.67
666.67
666.67
666.67
666.669
666.669
666.669
666.669
666.669
666.669
666.669
666.669
666.669
666.668
666.668
666.668
666.668
666.668
666.668
666.668
666.668
666.668
666.668
666.668
666.668
666.668
666.668
666.667
666.667
666.667
666.667
666.667
666.667
666.667
666.667
666.667
666.667
)
;

boundaryField
{
    topWall
    {
        type            empty;
    }
    bottomWall
    {
        type            empty;
    }
    leftAndRight_half1
    {
        type            cyclic;
    }
    leftAndRight_half0
    {
        type            cyclic;
    }
    frontAndBack
    {
        type            empty;
    }
}


// ************************************************************************* //
