/*--------------------------------*- C++ -*----------------------------------*\
  =========                 |
  \\      /  F ield         | OpenFOAM: The Open Source CFD Toolbox
   \\    /   O peration     | Website:  https://openfoam.org
    \\  /    A nd           | Version:  9
     \\/     M anipulation  |
\*---------------------------------------------------------------------------*/
FoamFile
{
    format      ascii;
    class       volScalarField;
    location    "0.9";
    object      f_1;
}
// * * * * * * * * * * * * * * * * * * * * * * * * * * * * * * * * * * * * * //

dimensions      [1 -3 0 0 0 0 0];

internalField   nonuniform List<scalar> 
1000
(
168.885
168.885
168.885
168.885
168.884
168.884
168.884
168.884
168.884
168.884
168.883
168.883
168.883
168.883
168.883
168.883
168.883
168.883
168.883
168.883
168.882
168.882
168.882
168.882
168.882
168.882
168.882
168.882
168.882
168.882
168.882
168.882
168.882
168.882
168.882
168.882
168.882
168.882
168.882
168.882
168.882
168.882
168.882
168.882
168.881
168.881
168.881
168.881
168.881
168.881
168.881
168.881
168.881
168.881
168.881
168.881
168.881
168.881
168.881
168.881
168.881
168.881
168.881
168.881
168.881
168.881
168.881
168.881
168.881
168.881
168.881
168.881
168.881
168.881
168.881
168.881
168.881
168.881
168.881
168.881
168.881
168.881
168.881
168.881
168.881
168.881
168.881
168.881
168.881
168.881
168.881
168.881
168.881
168.881
168.881
168.881
168.881
168.881
168.881
168.881
168.881
168.881
168.881
168.882
168.882
168.882
168.882
168.882
168.882
168.882
168.882
168.882
168.882
168.882
168.882
168.882
168.882
168.882
168.882
168.882
168.882
168.882
168.882
168.882
168.882
168.882
168.882
168.882
168.882
168.882
168.882
168.882
168.882
168.882
168.882
168.882
168.882
168.883
168.883
168.883
168.883
168.883
168.883
168.883
168.883
168.883
168.883
168.883
168.883
168.883
168.883
168.884
168.884
168.884
168.884
168.884
168.884
168.884
168.884
168.884
168.884
168.885
168.885
168.885
168.885
168.885
168.885
168.885
168.886
168.886
168.886
168.886
168.886
168.887
168.887
168.887
168.887
168.887
168.888
168.888
168.888
168.888
168.889
168.889
168.889
168.889
168.89
168.89
168.89
168.891
168.891
168.891
168.892
168.892
168.892
168.893
168.893
168.894
168.894
168.895
168.895
168.896
168.896
168.896
168.897
168.898
168.898
168.899
168.899
168.9
168.9
168.901
168.902
168.902
168.903
168.904
168.905
168.905
168.906
168.907
168.908
168.909
168.909
168.91
168.911
168.912
168.913
168.914
168.915
168.916
168.917
168.919
168.92
168.921
168.922
168.923
168.925
168.926
168.927
168.929
168.93
168.931
168.933
168.934
168.936
168.938
168.939
168.941
168.943
168.944
168.946
168.948
168.95
168.952
168.954
168.956
168.958
168.96
168.962
168.964
168.967
168.969
168.971
168.974
168.976
168.979
168.982
168.984
168.987
168.99
168.993
168.996
168.999
169.002
169.005
169.008
169.011
169.014
169.018
169.021
169.025
169.028
169.032
169.036
169.04
169.044
169.048
169.052
169.056
169.06
169.064
169.069
169.073
169.078
169.082
169.087
169.092
169.097
169.102
169.107
169.112
169.117
169.123
169.128
169.134
169.14
169.145
169.151
169.157
169.163
169.17
169.176
169.182
169.189
169.195
169.202
169.209
169.216
169.223
169.23
169.238
169.245
169.253
169.26
169.268
169.276
169.284
169.292
169.301
169.309
169.317
169.326
169.335
169.344
169.353
169.362
169.371
169.381
169.39
169.4
169.41
169.42
169.43
169.44
169.451
169.461
169.472
169.483
169.494
169.505
169.516
169.528
169.539
169.551
169.563
169.575
169.587
169.599
169.612
169.624
169.637
169.65
169.663
169.676
169.69
169.703
169.717
169.731
169.745
169.759
169.773
169.788
169.802
169.817
169.832
169.847
169.863
169.878
169.894
169.909
169.925
169.941
169.958
169.974
169.991
170.007
170.024
170.041
170.058
170.076
170.093
170.111
170.129
170.147
170.165
170.184
170.202
170.221
170.24
170.259
170.278
170.297
170.317
170.337
170.357
170.377
170.397
170.417
170.438
170.458
170.479
170.5
170.522
170.543
170.564
170.586
170.608
170.63
170.652
170.675
170.697
170.72
170.743
170.766
170.789
170.812
170.836
170.859
170.883
170.907
170.931
170.956
170.98
171.005
171.03
171.054
171.08
171.105
171.13
171.156
171.182
171.208
171.234
171.26
171.286
171.313
171.339
171.366
171.393
171.42
171.448
171.475
171.503
171.531
171.558
171.587
171.615
171.643
171.672
171.7
171.729
171.758
171.787
171.816
171.846
171.875
171.905
171.935
171.965
171.995
172.025
172.056
172.086
172.117
172.148
172.179
172.21
172.241
172.272
172.304
172.336
172.367
172.399
172.431
172.464
172.496
172.528
172.561
172.594
172.627
172.66
172.693
172.726
172.759
172.793
172.827
172.86
172.894
172.928
172.962
172.997
173.031
173.065
173.1
173.135
173.17
173.205
173.24
173.275
173.31
173.346
173.382
173.417
173.453
173.489
173.525
173.561
173.597
173.634
173.67
173.707
173.744
173.781
173.818
173.855
173.892
173.929
173.966
174.004
174.041
174.079
174.117
174.155
174.193
174.231
174.269
174.308
174.346
174.385
174.423
174.462
174.501
174.54
174.579
174.618
174.657
174.696
174.736
174.775
174.815
174.854
174.894
174.934
174.974
175.014
175.054
175.095
175.135
175.175
175.216
175.256
175.297
175.338
175.379
175.42
175.461
175.502
175.543
175.584
175.626
175.667
175.709
175.75
175.792
175.834
175.876
175.917
175.959
176.002
176.044
176.086
176.128
176.171
176.213
176.256
176.298
176.341
176.384
176.427
176.47
176.513
176.556
176.599
176.642
176.685
176.729
176.772
176.815
176.859
176.903
176.946
176.99
177.034
177.078
177.122
177.166
177.21
177.254
177.298
177.342
177.387
177.431
177.475
177.52
177.564
177.609
177.654
177.698
177.743
177.788
177.833
177.878
177.923
177.968
178.013
178.058
178.103
178.149
178.194
178.239
178.285
178.33
178.376
178.421
178.467
178.512
178.558
178.604
178.65
178.695
178.741
178.787
178.833
178.879
178.925
178.971
179.017
179.063
179.109
179.156
179.202
179.248
179.294
179.34
179.387
179.433
179.479
179.526
179.572
179.619
179.665
179.712
179.758
179.804
179.851
179.897
179.944
179.99
180.037
180.084
180.13
180.177
180.223
180.27
180.316
180.363
180.409
180.456
180.502
180.549
180.595
180.641
180.688
180.734
180.78
180.827
180.873
180.919
180.965
181.011
181.057
181.103
181.149
181.195
181.241
181.287
181.333
181.378
181.424
181.469
181.514
181.56
181.605
181.65
181.695
181.739
181.784
181.828
181.873
181.917
181.961
182.005
182.048
182.092
182.135
182.178
182.221
182.264
182.306
182.348
182.39
182.432
182.474
182.515
182.555
182.596
182.636
182.676
182.715
182.755
182.793
182.832
182.87
182.907
182.944
182.981
183.017
183.052
183.087
183.122
183.155
183.189
183.221
183.253
183.285
183.315
183.345
183.374
183.402
183.43
183.457
183.482
183.507
183.531
183.554
183.576
183.596
183.616
183.635
183.652
183.668
183.683
183.696
183.708
183.719
183.728
183.736
183.742
183.746
183.749
183.75
183.749
183.746
183.741
183.735
183.726
183.715
183.702
183.687
183.669
183.649
183.627
183.602
183.574
183.544
183.511
183.475
183.437
183.395
183.35
183.303
183.252
183.198
183.141
183.08
183.016
182.949
182.878
182.803
182.725
182.643
182.558
182.469
182.376
182.279
182.179
182.075
181.967
181.855
181.739
181.62
181.497
181.37
181.239
181.105
180.967
180.826
180.681
180.533
180.381
180.227
180.069
179.908
179.745
179.578
179.409
179.238
179.065
178.889
178.711
178.532
178.351
178.169
177.985
177.801
177.616
177.43
177.243
177.056
176.87
176.683
176.497
176.312
176.127
175.943
175.76
175.578
175.398
175.22
175.043
174.868
174.696
174.525
174.357
174.191
174.028
173.868
173.71
173.555
173.403
173.254
173.108
172.966
172.826
172.69
172.556
172.426
172.3
172.176
172.056
171.939
171.825
171.715
171.607
171.503
171.402
171.304
171.209
171.117
171.028
170.942
170.859
170.778
170.701
170.626
170.553
170.483
170.416
170.351
170.289
170.229
170.171
170.115
170.062
170.01
169.961
169.913
169.867
169.824
169.781
169.741
169.702
169.665
169.63
169.595
169.563
169.531
169.501
169.473
169.445
169.419
169.394
169.37
169.347
169.325
169.304
169.283
169.264
169.246
169.228
169.212
169.196
169.18
169.166
169.152
169.139
169.126
169.114
169.103
169.092
169.081
169.071
169.062
169.053
169.044
169.036
169.028
169.021
169.014
169.007
169.001
168.995
168.989
168.983
168.978
168.973
168.968
168.964
168.96
168.955
168.952
168.948
168.944
168.941
168.938
168.935
168.932
168.929
168.927
168.924
168.922
168.92
168.918
168.916
168.914
168.912
168.911
168.909
168.908
168.906
168.905
168.903
168.902
168.901
168.9
168.899
168.898
168.897
168.896
168.895
168.895
168.894
168.893
168.892
168.892
168.891
168.891
168.89
168.89
168.889
168.889
168.888
168.888
168.888
168.887
168.887
168.886
168.886
168.886
168.886
)
;

boundaryField
{
    topWall
    {
        type            empty;
    }
    bottomWall
    {
        type            empty;
    }
    leftAndRight_half1
    {
        type            cyclic;
    }
    leftAndRight_half0
    {
        type            cyclic;
    }
    frontAndBack
    {
        type            empty;
    }
}


// ************************************************************************* //
