/*--------------------------------*- C++ -*----------------------------------*\
  =========                 |
  \\      /  F ield         | OpenFOAM: The Open Source CFD Toolbox
   \\    /   O peration     | Website:  https://openfoam.org
    \\  /    A nd           | Version:  9
     \\/     M anipulation  |
\*---------------------------------------------------------------------------*/
FoamFile
{
    format      ascii;
    class       volScalarField;
    location    "0.9";
    object      f_2;
}
// * * * * * * * * * * * * * * * * * * * * * * * * * * * * * * * * * * * * * //

dimensions      [1 -3 0 0 0 0 0];

internalField   nonuniform List<scalar> 
1000
(
164.478
164.478
164.478
164.478
164.478
164.479
164.479
164.479
164.479
164.479
164.479
164.479
164.479
164.48
164.48
164.48
164.48
164.48
164.48
164.48
164.48
164.48
164.48
164.48
164.48
164.48
164.48
164.48
164.481
164.481
164.481
164.481
164.481
164.481
164.481
164.481
164.481
164.481
164.481
164.481
164.481
164.481
164.481
164.481
164.481
164.481
164.481
164.481
164.481
164.481
164.481
164.481
164.481
164.481
164.481
164.481
164.481
164.481
164.481
164.481
164.481
164.481
164.481
164.481
164.481
164.481
164.481
164.481
164.481
164.481
164.481
164.481
164.481
164.481
164.481
164.481
164.481
164.481
164.481
164.481
164.481
164.481
164.481
164.481
164.481
164.481
164.481
164.481
164.481
164.481
164.481
164.481
164.481
164.481
164.481
164.481
164.481
164.481
164.481
164.481
164.481
164.481
164.481
164.481
164.481
164.481
164.481
164.481
164.481
164.481
164.481
164.481
164.481
164.481
164.481
164.481
164.481
164.481
164.481
164.481
164.48
164.48
164.48
164.48
164.48
164.48
164.48
164.48
164.48
164.48
164.48
164.48
164.48
164.48
164.48
164.48
164.48
164.48
164.48
164.48
164.48
164.48
164.479
164.479
164.479
164.479
164.479
164.479
164.479
164.479
164.479
164.479
164.479
164.478
164.478
164.478
164.478
164.478
164.478
164.478
164.478
164.478
164.477
164.477
164.477
164.477
164.477
164.477
164.476
164.476
164.476
164.476
164.476
164.475
164.475
164.475
164.475
164.475
164.474
164.474
164.474
164.474
164.473
164.473
164.473
164.472
164.472
164.472
164.471
164.471
164.471
164.47
164.47
164.47
164.469
164.469
164.468
164.468
164.467
164.467
164.466
164.466
164.465
164.465
164.464
164.464
164.463
164.463
164.462
164.461
164.461
164.46
164.459
164.459
164.458
164.457
164.456
164.456
164.455
164.454
164.453
164.452
164.451
164.45
164.449
164.448
164.447
164.446
164.445
164.444
164.443
164.442
164.441
164.439
164.438
164.437
164.436
164.434
164.433
164.431
164.43
164.429
164.427
164.425
164.424
164.422
164.42
164.419
164.417
164.415
164.413
164.411
164.409
164.407
164.405
164.403
164.401
164.399
164.397
164.394
164.392
164.39
164.387
164.385
164.382
164.379
164.377
164.374
164.371
164.368
164.365
164.362
164.359
164.356
164.353
164.35
164.346
164.343
164.339
164.336
164.332
164.329
164.325
164.321
164.317
164.313
164.309
164.305
164.301
164.296
164.292
164.287
164.283
164.278
164.273
164.269
164.264
164.259
164.253
164.248
164.243
164.238
164.232
164.227
164.221
164.215
164.209
164.203
164.197
164.191
164.185
164.178
164.172
164.165
164.158
164.152
164.145
164.138
164.13
164.123
164.116
164.108
164.101
164.093
164.085
164.077
164.069
164.061
164.052
164.044
164.035
164.027
164.018
164.009
164
163.991
163.981
163.972
163.962
163.952
163.942
163.932
163.922
163.912
163.901
163.891
163.88
163.869
163.858
163.847
163.836
163.825
163.813
163.801
163.79
163.778
163.766
163.753
163.741
163.728
163.716
163.703
163.69
163.677
163.663
163.65
163.636
163.623
163.609
163.595
163.58
163.566
163.552
163.537
163.522
163.507
163.492
163.477
163.461
163.446
163.43
163.414
163.398
163.382
163.366
163.349
163.333
163.316
163.299
163.282
163.265
163.247
163.23
163.212
163.194
163.176
163.158
163.139
163.121
163.102
163.083
163.065
163.045
163.026
163.007
162.987
162.967
162.948
162.927
162.907
162.887
162.866
162.846
162.825
162.804
162.783
162.762
162.74
162.719
162.697
162.675
162.653
162.631
162.609
162.586
162.564
162.541
162.518
162.495
162.472
162.448
162.425
162.401
162.377
162.353
162.329
162.305
162.281
162.256
162.232
162.207
162.182
162.157
162.132
162.106
162.081
162.055
162.03
162.004
161.978
161.951
161.925
161.899
161.872
161.845
161.819
161.792
161.765
161.737
161.71
161.683
161.655
161.627
161.599
161.571
161.543
161.515
161.487
161.458
161.43
161.401
161.372
161.343
161.314
161.285
161.255
161.226
161.196
161.167
161.137
161.107
161.077
161.047
161.017
160.986
160.956
160.925
160.894
160.864
160.833
160.802
160.77
160.739
160.708
160.676
160.645
160.613
160.581
160.55
160.518
160.486
160.453
160.421
160.389
160.356
160.324
160.291
160.258
160.225
160.192
160.159
160.126
160.093
160.06
160.026
159.993
159.959
159.926
159.892
159.858
159.824
159.79
159.756
159.722
159.687
159.653
159.619
159.584
159.549
159.515
159.48
159.445
159.41
159.375
159.34
159.305
159.27
159.234
159.199
159.164
159.128
159.092
159.057
159.021
158.985
158.949
158.913
158.877
158.841
158.805
158.769
158.732
158.696
158.66
158.623
158.586
158.55
158.513
158.476
158.44
158.403
158.366
158.329
158.292
158.255
158.217
158.18
158.143
158.106
158.068
158.031
157.993
157.956
157.918
157.88
157.843
157.805
157.767
157.729
157.691
157.653
157.615
157.577
157.539
157.501
157.462
157.424
157.386
157.348
157.309
157.271
157.232
157.194
157.155
157.116
157.078
157.039
157
156.962
156.923
156.884
156.845
156.806
156.767
156.728
156.689
156.65
156.611
156.572
156.533
156.493
156.454
156.415
156.376
156.336
156.297
156.257
156.218
156.179
156.139
156.1
156.06
156.02
155.981
155.941
155.902
155.862
155.822
155.783
155.743
155.703
155.663
155.624
155.584
155.544
155.504
155.464
155.425
155.385
155.345
155.305
155.265
155.225
155.185
155.145
155.105
155.065
155.025
154.985
154.945
154.905
154.865
154.825
154.785
154.746
154.706
154.666
154.626
154.586
154.546
154.506
154.466
154.426
154.386
154.346
154.306
154.266
154.227
154.187
154.147
154.107
154.067
154.028
153.988
153.948
153.909
153.869
153.83
153.79
153.751
153.711
153.672
153.632
153.593
153.554
153.515
153.476
153.436
153.397
153.359
153.32
153.281
153.242
153.204
153.165
153.127
153.088
153.05
153.012
152.974
152.936
152.898
152.86
152.823
152.786
152.748
152.711
152.674
152.637
152.601
152.564
152.528
152.492
152.456
152.42
152.384
152.349
152.314
152.279
152.244
152.21
152.176
152.142
152.108
152.075
152.042
152.009
151.977
151.945
151.914
151.882
151.851
151.821
151.791
151.761
151.732
151.703
151.675
151.647
151.62
151.593
151.567
151.542
151.517
151.493
151.469
151.446
151.424
151.402
151.381
151.361
151.342
151.324
151.306
151.29
151.274
151.26
151.246
151.233
151.222
151.211
151.202
151.194
151.187
151.182
151.178
151.175
151.174
151.174
151.175
151.178
151.183
151.19
151.198
151.208
151.22
151.233
151.249
151.267
151.286
151.308
151.332
151.358
151.387
151.418
151.451
151.487
151.525
151.566
151.61
151.656
151.705
151.757
151.812
151.869
151.93
151.994
152.061
152.13
152.203
152.28
152.359
152.442
152.527
152.617
152.709
152.805
152.904
153.006
153.112
153.221
153.333
153.449
153.567
153.689
153.814
153.942
154.073
154.207
154.344
154.483
154.625
154.769
154.916
155.066
155.217
155.37
155.526
155.683
155.842
156.002
156.163
156.326
156.489
156.654
156.819
156.984
157.15
157.316
157.481
157.647
157.812
157.976
158.14
158.303
158.465
158.625
158.784
158.942
159.098
159.252
159.405
159.555
159.703
159.849
159.993
160.134
160.273
160.409
160.543
160.673
160.802
160.927
161.049
161.169
161.286
161.4
161.511
161.619
161.724
161.827
161.926
162.023
162.117
162.208
162.296
162.382
162.465
162.545
162.623
162.698
162.77
162.84
162.908
162.973
163.036
163.097
163.155
163.212
163.266
163.318
163.369
163.417
163.463
163.508
163.551
163.592
163.632
163.67
163.706
163.741
163.775
163.807
163.838
163.867
163.896
163.923
163.949
163.974
163.997
164.02
164.042
164.062
164.082
164.101
164.119
164.137
164.153
164.169
164.184
164.199
164.212
164.225
164.238
164.25
164.261
164.272
164.282
164.292
164.302
164.311
164.319
164.327
164.335
164.342
164.349
164.356
164.362
164.368
164.374
164.38
164.385
164.39
164.395
164.399
164.403
164.407
164.411
164.415
164.418
164.422
164.425
164.428
164.43
164.433
164.436
164.438
164.44
164.443
164.445
164.447
164.448
164.45
164.452
164.453
164.455
164.456
164.458
164.459
164.46
164.461
164.462
164.463
164.464
164.465
164.466
164.467
164.468
164.469
164.469
164.47
164.471
164.471
164.472
164.472
164.473
164.473
164.474
164.474
164.474
164.475
164.475
164.476
164.476
164.476
164.476
164.477
164.477
164.477
164.477
)
;

boundaryField
{
    topWall
    {
        type            empty;
    }
    bottomWall
    {
        type            empty;
    }
    leftAndRight_half1
    {
        type            cyclic;
    }
    leftAndRight_half0
    {
        type            cyclic;
    }
    frontAndBack
    {
        type            empty;
    }
}


// ************************************************************************* //
