/*--------------------------------*- C++ -*----------------------------------*\
  =========                 |
  \\      /  F ield         | OpenFOAM: The Open Source CFD Toolbox
   \\    /   O peration     | Website:  https://openfoam.org
    \\  /    A nd           | Version:  9
     \\/     M anipulation  |
\*---------------------------------------------------------------------------*/
FoamFile
{
    format      ascii;
    class       volScalarField;
    location    "0.9";
    object      p;
}
// * * * * * * * * * * * * * * * * * * * * * * * * * * * * * * * * * * * * * //

dimensions      [1 -1 -2 0 0 0 0];

internalField   nonuniform List<scalar> 
1000
(
100101
100100
100100
100100
100100
100100
100099
100099
100099
100099
100099
100099
100099
100099
100098
100098
100098
100098
100098
100098
100098
100098
100098
100098
100098
100098
100098
100098
100098
100097
100097
100097
100097
100097
100097
100097
100097
100097
100097
100097
100097
100097
100097
100097
100097
100097
100097
100097
100097
100097
100097
100097
100097
100097
100097
100097
100097
100097
100097
100097
100097
100097
100097
100097
100097
100097
100097
100097
100097
100097
100097
100097
100097
100097
100097
100097
100097
100097
100097
100097
100097
100097
100097
100097
100097
100097
100097
100097
100097
100097
100097
100097
100097
100097
100097
100097
100097
100097
100097
100097
100097
100097
100097
100097
100097
100097
100097
100097
100097
100097
100097
100097
100097
100097
100097
100096
100096
100096
100096
100096
100096
100096
100096
100096
100096
100096
100096
100096
100096
100096
100096
100096
100096
100096
100096
100096
100096
100096
100096
100096
100096
100096
100096
100096
100096
100096
100096
100096
100096
100096
100096
100096
100096
100095
100095
100095
100095
100095
100095
100095
100095
100095
100095
100095
100095
100095
100095
100095
100095
100095
100094
100094
100094
100094
100094
100094
100094
100094
100094
100094
100094
100093
100093
100093
100093
100093
100093
100093
100093
100092
100092
100092
100092
100092
100092
100092
100091
100091
100091
100091
100091
100091
100090
100090
100090
100090
100090
100089
100089
100089
100089
100088
100088
100088
100088
100087
100087
100087
100087
100086
100086
100086
100086
100085
100085
100085
100084
100084
100084
100083
100083
100083
100082
100082
100081
100081
100081
100080
100080
100079
100079
100079
100078
100078
100077
100077
100076
100076
100075
100075
100074
100074
100073
100073
100072
100072
100071
100071
100070
100069
100069
100068
100068
100067
100066
100066
100065
100064
100064
100063
100062
100062
100061
100060
100059
100059
100058
100057
100056
100056
100055
100054
100053
100052
100052
100051
100050
100049
100048
100047
100047
100046
100045
100044
100043
100042
100041
100040
100039
100038
100038
100037
100036
100035
100034
100033
100032
100031
100030
100029
100028
100027
100026
100025
100024
100023
100022
100021
100020
100019
100018
100017
100016
100015
100014
100013
100012
100011
100009
100008
100007
100006
100005
100004
100003
100002
100001
100000
99999.3
99998.3
99997.3
99996.3
99995.4
99994.4
99993.4
99992.5
99991.5
99990.6
99989.7
99988.7
99987.8
99986.9
99986
99985.2
99984.3
99983.4
99982.6
99981.8
99980.9
99980.2
99979.4
99978.6
99977.8
99977.1
99976.4
99975.7
99975
99974.3
99973.7
99973.1
99972.5
99971.9
99971.3
99970.8
99970.3
99969.8
99969.3
99968.9
99968.4
99968
99967.7
99967.3
99967
99966.7
99966.5
99966.2
99966
99965.9
99965.7
99965.6
99965.5
99965.5
99965.5
99965.5
99965.6
99965.7
99965.8
99965.9
99966.1
99966.4
99966.7
99967
99967.3
99967.7
99968.1
99968.6
99969.1
99969.7
99970.3
99970.9
99971.6
99972.3
99973.1
99973.9
99974.8
99975.7
99976.6
99977.6
99978.7
99979.8
99980.9
99982.1
99983.4
99984.7
99986
99987.4
99988.9
99990.4
99992
99993.6
99995.2
99997
99998.8
100001
100002
100004
100006
100008
100011
100013
100015
100017
100020
100022
100025
100027
100030
100032
100035
100038
100041
100044
100047
100050
100053
100056
100059
100063
100066
100070
100073
100077
100080
100084
100088
100092
100096
100100
100104
100108
100112
100116
100121
100125
100130
100134
100139
100144
100149
100154
100159
100164
100169
100174
100179
100185
100190
100196
100201
100207
100213
100218
100224
100230
100236
100243
100249
100255
100262
100268
100275
100281
100288
100295
100302
100309
100316
100323
100330
100337
100345
100352
100360
100368
100375
100383
100391
100399
100407
100415
100424
100432
100440
100449
100458
100466
100475
100484
100493
100502
100511
100520
100530
100539
100549
100558
100568
100578
100587
100597
100607
100618
100628
100638
100649
100659
100670
100680
100691
100702
100713
100724
100735
100746
100758
100769
100781
100792
100804
100816
100828
100840
100852
100864
100876
100889
100901
100914
100926
100939
100952
100965
100978
100991
101004
101018
101031
101044
101058
101072
101086
101099
101113
101128
101142
101156
101170
101185
101199
101214
101229
101244
101259
101274
101289
101304
101319
101335
101350
101366
101382
101398
101413
101430
101446
101462
101478
101495
101511
101528
101544
101561
101578
101595
101612
101629
101647
101664
101682
101699
101717
101735
101753
101771
101789
101807
101825
101843
101862
101881
101899
101918
101937
101956
101975
101994
102013
102033
102052
102072
102091
102111
102131
102151
102171
102191
102211
102232
102252
102273
102293
102314
102335
102356
102377
102398
102419
102441
102462
102484
102505
102527
102549
102571
102593
102615
102637
102659
102682
102704
102727
102749
102772
102795
102818
102841
102864
102888
102911
102934
102958
102982
103005
103029
103053
103077
103101
103125
103150
103174
103199
103223
103248
103272
103297
103322
103347
103372
103398
103423
103448
103474
103499
103525
103550
103576
103602
103628
103654
103680
103706
103733
103759
103785
103812
103838
103865
103892
103918
103945
103972
103999
104026
104053
104080
104108
104135
104162
104190
104217
104244
104272
104300
104327
104355
104382
104410
104438
104466
104493
104521
104549
104577
104604
104632
104660
104688
104716
104743
104771
104799
104826
104854
104881
104909
104936
104964
104991
105018
105045
105072
105099
105125
105152
105178
105204
105230
105256
105281
105307
105332
105356
105381
105405
105429
105452
105475
105498
105520
105542
105563
105584
105604
105624
105643
105662
105680
105697
105713
105729
105744
105758
105771
105783
105794
105804
105813
105821
105828
105834
105838
105841
105842
105842
105841
105838
105834
105827
105820
105810
105799
105785
105770
105753
105734
105713
105690
105665
105637
105608
105576
105542
105506
105467
105426
105383
105338
105291
105241
105190
105136
105080
105022
104962
104900
104836
104770
104703
104634
104563
104491
104417
104342
104266
104189
104111
104032
103953
103872
103792
103710
103629
103547
103465
103384
103302
103221
103140
103059
102979
102900
102821
102743
102667
102591
102516
102442
102369
102298
102227
102158
102091
102024
101959
101896
101834
101773
101714
101656
101600
101546
101492
101440
101390
101341
101294
101248
101203
101160
101118
101078
101039
101001
100964
100929
100895
100862
100830
100799
100770
100741
100714
100688
100662
100638
100615
100592
100570
100550
100530
100510
100492
100474
100457
100441
100425
100411
100396
100383
100369
100357
100345
100333
100322
100312
100302
100292
100283
100274
100266
100258
100250
100243
100236
100229
100222
100216
100211
100205
100200
100195
100190
100185
100181
100177
100173
100169
100165
100162
100159
100156
100153
100150
100147
100145
100142
100140
100138
100136
100134
100132
100130
100128
100127
100125
100123
100122
100121
100120
100118
100117
100116
100115
100114
100113
100112
100111
100111
100110
100109
100109
100108
100107
100107
100106
100106
100105
100105
100104
100104
100104
100103
100103
100102
100102
100102
100102
100101
100101
100101
)
;

boundaryField
{
    topWall
    {
        type            empty;
    }
    bottomWall
    {
        type            empty;
    }
    leftAndRight_half1
    {
        type            cyclic;
    }
    leftAndRight_half0
    {
        type            cyclic;
    }
    frontAndBack
    {
        type            empty;
    }
}


// ************************************************************************* //
