/*--------------------------------*- C++ -*----------------------------------*\
  =========                 |
  \\      /  F ield         | OpenFOAM: The Open Source CFD Toolbox
   \\    /   O peration     | Website:  https://openfoam.org
    \\  /    A nd           | Version:  9
     \\/     M anipulation  |
\*---------------------------------------------------------------------------*/
FoamFile
{
    format      ascii;
    class       volVectorField;
    location    "0.9";
    object      U;
}
// * * * * * * * * * * * * * * * * * * * * * * * * * * * * * * * * * * * * * //

dimensions      [0 1 -1 0 0 0 0];

internalField   nonuniform List<vector> 
1000
(
(0.440757 0 0)
(0.440712 0 0)
(0.44067 0 0)
(0.440631 0 0)
(0.440594 0 0)
(0.440558 0 0)
(0.440525 0 0)
(0.440494 0 0)
(0.440465 0 0)
(0.440437 0 0)
(0.44041 0 0)
(0.440386 0 0)
(0.440362 0 0)
(0.44034 0 0)
(0.44032 0 0)
(0.4403 0 0)
(0.440282 0 0)
(0.440264 0 0)
(0.440248 0 0)
(0.440233 0 0)
(0.440218 0 0)
(0.440205 0 0)
(0.440192 0 0)
(0.44018 0 0)
(0.440168 0 0)
(0.440158 0 0)
(0.440148 0 0)
(0.440138 0 0)
(0.440129 0 0)
(0.440121 0 0)
(0.440113 0 0)
(0.440106 0 0)
(0.440099 0 0)
(0.440092 0 0)
(0.440086 0 0)
(0.440081 0 0)
(0.440075 0 0)
(0.44007 0 0)
(0.440066 0 0)
(0.440061 0 0)
(0.440057 0 0)
(0.440053 0 0)
(0.440049 0 0)
(0.440046 0 0)
(0.440043 0 0)
(0.44004 0 0)
(0.440037 0 0)
(0.440035 0 0)
(0.440032 0 0)
(0.44003 0 0)
(0.440028 0 0)
(0.440026 0 0)
(0.440024 0 0)
(0.440023 0 0)
(0.440021 0 0)
(0.44002 0 0)
(0.440019 0 0)
(0.440018 0 0)
(0.440017 0 0)
(0.440016 0 0)
(0.440015 0 0)
(0.440014 0 0)
(0.440014 0 0)
(0.440013 0 0)
(0.440013 0 0)
(0.440012 0 0)
(0.440012 0 0)
(0.440012 0 0)
(0.440012 0 0)
(0.440012 0 0)
(0.440012 0 0)
(0.440012 0 0)
(0.440012 0 0)
(0.440012 0 0)
(0.440012 0 0)
(0.440013 0 0)
(0.440013 0 0)
(0.440014 0 0)
(0.440014 0 0)
(0.440015 0 0)
(0.440016 0 0)
(0.440016 0 0)
(0.440017 0 0)
(0.440018 0 0)
(0.440019 0 0)
(0.44002 0 0)
(0.440021 0 0)
(0.440023 0 0)
(0.440024 0 0)
(0.440025 0 0)
(0.440027 0 0)
(0.440028 0 0)
(0.44003 0 0)
(0.440031 0 0)
(0.440033 0 0)
(0.440035 0 0)
(0.440037 0 0)
(0.440039 0 0)
(0.440041 0 0)
(0.440044 0 0)
(0.440046 0 0)
(0.440048 0 0)
(0.440051 0 0)
(0.440054 0 0)
(0.440057 0 0)
(0.44006 0 0)
(0.440063 0 0)
(0.440066 0 0)
(0.440069 0 0)
(0.440073 0 0)
(0.440077 0 0)
(0.44008 0 0)
(0.440084 0 0)
(0.440089 0 0)
(0.440093 0 0)
(0.440098 0 0)
(0.440102 0 0)
(0.440107 0 0)
(0.440113 0 0)
(0.440118 0 0)
(0.440124 0 0)
(0.440129 0 0)
(0.440136 0 0)
(0.440142 0 0)
(0.440148 0 0)
(0.440155 0 0)
(0.440162 0 0)
(0.44017 0 0)
(0.440178 0 0)
(0.440186 0 0)
(0.440194 0 0)
(0.440203 0 0)
(0.440212 0 0)
(0.440221 0 0)
(0.440231 0 0)
(0.440241 0 0)
(0.440252 0 0)
(0.440263 0 0)
(0.440274 0 0)
(0.440286 0 0)
(0.440298 0 0)
(0.440311 0 0)
(0.440324 0 0)
(0.440338 0 0)
(0.440352 0 0)
(0.440367 0 0)
(0.440382 0 0)
(0.440398 0 0)
(0.440415 0 0)
(0.440432 0 0)
(0.44045 0 0)
(0.440468 0 0)
(0.440487 0 0)
(0.440507 0 0)
(0.440528 0 0)
(0.440549 0 0)
(0.440571 0 0)
(0.440594 0 0)
(0.440618 0 0)
(0.440642 0 0)
(0.440668 0 0)
(0.440694 0 0)
(0.440722 0 0)
(0.44075 0 0)
(0.440779 0 0)
(0.44081 0 0)
(0.440841 0 0)
(0.440873 0 0)
(0.440907 0 0)
(0.440942 0 0)
(0.440978 0 0)
(0.441015 0 0)
(0.441054 0 0)
(0.441094 0 0)
(0.441135 0 0)
(0.441178 0 0)
(0.441222 0 0)
(0.441267 0 0)
(0.441314 0 0)
(0.441363 0 0)
(0.441413 0 0)
(0.441465 0 0)
(0.441519 0 0)
(0.441574 0 0)
(0.441632 0 0)
(0.441691 0 0)
(0.441752 0 0)
(0.441815 0 0)
(0.44188 0 0)
(0.441947 0 0)
(0.442017 0 0)
(0.442088 0 0)
(0.442162 0 0)
(0.442238 0 0)
(0.442317 0 0)
(0.442398 0 0)
(0.442482 0 0)
(0.442568 0 0)
(0.442657 0 0)
(0.442749 0 0)
(0.442843 0 0)
(0.44294 0 0)
(0.443041 0 0)
(0.443144 0 0)
(0.443251 0 0)
(0.443361 0 0)
(0.443474 0 0)
(0.44359 0 0)
(0.44371 0 0)
(0.443833 0 0)
(0.44396 0 0)
(0.444091 0 0)
(0.444226 0 0)
(0.444364 0 0)
(0.444507 0 0)
(0.444654 0 0)
(0.444805 0 0)
(0.44496 0 0)
(0.44512 0 0)
(0.445284 0 0)
(0.445453 0 0)
(0.445626 0 0)
(0.445805 0 0)
(0.445988 0 0)
(0.446176 0 0)
(0.44637 0 0)
(0.446569 0 0)
(0.446773 0 0)
(0.446983 0 0)
(0.447199 0 0)
(0.447421 0 0)
(0.447648 0 0)
(0.447881 0 0)
(0.448121 0 0)
(0.448367 0 0)
(0.44862 0 0)
(0.448879 0 0)
(0.449145 0 0)
(0.449417 0 0)
(0.449697 0 0)
(0.449984 0 0)
(0.450278 0 0)
(0.45058 0 0)
(0.450889 0 0)
(0.451206 0 0)
(0.451532 0 0)
(0.451865 0 0)
(0.452206 0 0)
(0.452556 0 0)
(0.452914 0 0)
(0.453282 0 0)
(0.453658 0 0)
(0.454043 0 0)
(0.454437 0 0)
(0.454841 0 0)
(0.455254 0 0)
(0.455678 0 0)
(0.456111 0 0)
(0.456554 0 0)
(0.457008 0 0)
(0.457472 0 0)
(0.457946 0 0)
(0.458432 0 0)
(0.458929 0 0)
(0.459437 0 0)
(0.459956 0 0)
(0.460487 0 0)
(0.46103 0 0)
(0.461584 0 0)
(0.462151 0 0)
(0.462731 0 0)
(0.463323 0 0)
(0.463927 0 0)
(0.464545 0 0)
(0.465176 0 0)
(0.465821 0 0)
(0.466479 0 0)
(0.467151 0 0)
(0.467836 0 0)
(0.468537 0 0)
(0.469251 0 0)
(0.469981 0 0)
(0.470725 0 0)
(0.471484 0 0)
(0.472259 0 0)
(0.473049 0 0)
(0.473855 0 0)
(0.474676 0 0)
(0.475514 0 0)
(0.476369 0 0)
(0.47724 0 0)
(0.478127 0 0)
(0.479032 0 0)
(0.479954 0 0)
(0.480894 0 0)
(0.481851 0 0)
(0.482827 0 0)
(0.48382 0 0)
(0.484832 0 0)
(0.485862 0 0)
(0.486911 0 0)
(0.487979 0 0)
(0.489067 0 0)
(0.490174 0 0)
(0.4913 0 0)
(0.492447 0 0)
(0.493613 0 0)
(0.4948 0 0)
(0.496008 0 0)
(0.497236 0 0)
(0.498485 0 0)
(0.499756 0 0)
(0.501048 0 0)
(0.502362 0 0)
(0.503697 0 0)
(0.505055 0 0)
(0.506434 0 0)
(0.507837 0 0)
(0.509262 0 0)
(0.51071 0 0)
(0.512181 0 0)
(0.513675 0 0)
(0.515193 0 0)
(0.516735 0 0)
(0.5183 0 0)
(0.51989 0 0)
(0.521504 0 0)
(0.523143 0 0)
(0.524806 0 0)
(0.526494 0 0)
(0.528208 0 0)
(0.529946 0 0)
(0.531711 0 0)
(0.533501 0 0)
(0.535316 0 0)
(0.537158 0 0)
(0.539026 0 0)
(0.540921 0 0)
(0.542842 0 0)
(0.54479 0 0)
(0.546765 0 0)
(0.548767 0 0)
(0.550796 0 0)
(0.552852 0 0)
(0.554937 0 0)
(0.557049 0 0)
(0.559189 0 0)
(0.561357 0 0)
(0.563553 0 0)
(0.565778 0 0)
(0.568031 0 0)
(0.570313 0 0)
(0.572623 0 0)
(0.574963 0 0)
(0.577331 0 0)
(0.579729 0 0)
(0.582157 0 0)
(0.584613 0 0)
(0.5871 0 0)
(0.589616 0 0)
(0.592162 0 0)
(0.594738 0 0)
(0.597344 0 0)
(0.59998 0 0)
(0.602646 0 0)
(0.605343 0 0)
(0.60807 0 0)
(0.610828 0 0)
(0.613617 0 0)
(0.616436 0 0)
(0.619287 0 0)
(0.622168 0 0)
(0.62508 0 0)
(0.628024 0 0)
(0.630998 0 0)
(0.634004 0 0)
(0.637041 0 0)
(0.64011 0 0)
(0.64321 0 0)
(0.646342 0 0)
(0.649505 0 0)
(0.6527 0 0)
(0.655926 0 0)
(0.659184 0 0)
(0.662474 0 0)
(0.665796 0 0)
(0.66915 0 0)
(0.672535 0 0)
(0.675953 0 0)
(0.679402 0 0)
(0.682884 0 0)
(0.686397 0 0)
(0.689943 0 0)
(0.69352 0 0)
(0.69713 0 0)
(0.700772 0 0)
(0.704445 0 0)
(0.708151 0 0)
(0.711889 0 0)
(0.715659 0 0)
(0.719461 0 0)
(0.723295 0 0)
(0.727161 0 0)
(0.731059 0 0)
(0.73499 0 0)
(0.738952 0 0)
(0.742946 0 0)
(0.746972 0 0)
(0.751031 0 0)
(0.755121 0 0)
(0.759243 0 0)
(0.763396 0 0)
(0.767582 0 0)
(0.771799 0 0)
(0.776049 0 0)
(0.780329 0 0)
(0.784642 0 0)
(0.788986 0 0)
(0.793362 0 0)
(0.797769 0 0)
(0.802207 0 0)
(0.806677 0 0)
(0.811178 0 0)
(0.815711 0 0)
(0.820275 0 0)
(0.824869 0 0)
(0.829495 0 0)
(0.834152 0 0)
(0.83884 0 0)
(0.843558 0 0)
(0.848308 0 0)
(0.853088 0 0)
(0.857898 0 0)
(0.86274 0 0)
(0.867611 0 0)
(0.872513 0 0)
(0.877445 0 0)
(0.882407 0 0)
(0.8874 0 0)
(0.892422 0 0)
(0.897474 0 0)
(0.902556 0 0)
(0.907668 0 0)
(0.912809 0 0)
(0.91798 0 0)
(0.92318 0 0)
(0.92841 0 0)
(0.933669 0 0)
(0.938956 0 0)
(0.944273 0 0)
(0.949619 0 0)
(0.954993 0 0)
(0.960396 0 0)
(0.965827 0 0)
(0.971287 0 0)
(0.976775 0 0)
(0.982291 0 0)
(0.987836 0 0)
(0.993408 0 0)
(0.999008 0 0)
(1.00464 0 0)
(1.01029 0 0)
(1.01597 0 0)
(1.02168 0 0)
(1.02742 0 0)
(1.03319 0 0)
(1.03898 0 0)
(1.0448 0 0)
(1.05064 0 0)
(1.05651 0 0)
(1.06241 0 0)
(1.06834 0 0)
(1.07429 0 0)
(1.08026 0 0)
(1.08627 0 0)
(1.09229 0 0)
(1.09835 0 0)
(1.10443 0 0)
(1.11053 0 0)
(1.11666 0 0)
(1.12282 0 0)
(1.129 0 0)
(1.1352 0 0)
(1.14143 0 0)
(1.14769 0 0)
(1.15397 0 0)
(1.16027 0 0)
(1.1666 0 0)
(1.17295 0 0)
(1.17933 0 0)
(1.18573 0 0)
(1.19215 0 0)
(1.1986 0 0)
(1.20507 0 0)
(1.21156 0 0)
(1.21808 0 0)
(1.22462 0 0)
(1.23118 0 0)
(1.23777 0 0)
(1.24437 0 0)
(1.251 0 0)
(1.25766 0 0)
(1.26433 0 0)
(1.27103 0 0)
(1.27775 0 0)
(1.28449 0 0)
(1.29125 0 0)
(1.29804 0 0)
(1.30484 0 0)
(1.31167 0 0)
(1.31851 0 0)
(1.32538 0 0)
(1.33227 0 0)
(1.33918 0 0)
(1.34611 0 0)
(1.35306 0 0)
(1.36004 0 0)
(1.36703 0 0)
(1.37404 0 0)
(1.38107 0 0)
(1.38812 0 0)
(1.39519 0 0)
(1.40229 0 0)
(1.4094 0 0)
(1.41652 0 0)
(1.42367 0 0)
(1.43084 0 0)
(1.43803 0 0)
(1.44523 0 0)
(1.45246 0 0)
(1.4597 0 0)
(1.46696 0 0)
(1.47424 0 0)
(1.48154 0 0)
(1.48885 0 0)
(1.49618 0 0)
(1.50353 0 0)
(1.5109 0 0)
(1.51829 0 0)
(1.52569 0 0)
(1.53311 0 0)
(1.54055 0 0)
(1.548 0 0)
(1.55547 0 0)
(1.56296 0 0)
(1.57047 0 0)
(1.57799 0 0)
(1.58553 0 0)
(1.59308 0 0)
(1.60065 0 0)
(1.60824 0 0)
(1.61584 0 0)
(1.62345 0 0)
(1.63109 0 0)
(1.63874 0 0)
(1.6464 0 0)
(1.65408 0 0)
(1.66178 0 0)
(1.66949 0 0)
(1.67721 0 0)
(1.68495 0 0)
(1.6927 0 0)
(1.70047 0 0)
(1.70826 0 0)
(1.71606 0 0)
(1.72387 0 0)
(1.73169 0 0)
(1.73953 0 0)
(1.74739 0 0)
(1.75526 0 0)
(1.76314 0 0)
(1.77103 0 0)
(1.77894 0 0)
(1.78686 0 0)
(1.7948 0 0)
(1.80275 0 0)
(1.81071 0 0)
(1.81868 0 0)
(1.82667 0 0)
(1.83467 0 0)
(1.84268 0 0)
(1.85071 0 0)
(1.85875 0 0)
(1.8668 0 0)
(1.87486 0 0)
(1.88293 0 0)
(1.89102 0 0)
(1.89912 0 0)
(1.90722 0 0)
(1.91535 0 0)
(1.92348 0 0)
(1.93162 0 0)
(1.93978 0 0)
(1.94794 0 0)
(1.95612 0 0)
(1.96431 0 0)
(1.97251 0 0)
(1.98072 0 0)
(1.98894 0 0)
(1.99717 0 0)
(2.00541 0 0)
(2.01366 0 0)
(2.02192 0 0)
(2.03019 0 0)
(2.03847 0 0)
(2.04676 0 0)
(2.05506 0 0)
(2.06337 0 0)
(2.07169 0 0)
(2.08002 0 0)
(2.08836 0 0)
(2.09671 0 0)
(2.10507 0 0)
(2.11343 0 0)
(2.1218 0 0)
(2.13019 0 0)
(2.13858 0 0)
(2.14698 0 0)
(2.15539 0 0)
(2.1638 0 0)
(2.17223 0 0)
(2.18066 0 0)
(2.1891 0 0)
(2.19754 0 0)
(2.206 0 0)
(2.21446 0 0)
(2.22293 0 0)
(2.23141 0 0)
(2.23989 0 0)
(2.24838 0 0)
(2.25688 0 0)
(2.26538 0 0)
(2.27389 0 0)
(2.2824 0 0)
(2.29092 0 0)
(2.29945 0 0)
(2.30799 0 0)
(2.31652 0 0)
(2.32507 0 0)
(2.33362 0 0)
(2.34217 0 0)
(2.35073 0 0)
(2.3593 0 0)
(2.36787 0 0)
(2.37644 0 0)
(2.38502 0 0)
(2.3936 0 0)
(2.40218 0 0)
(2.41077 0 0)
(2.41936 0 0)
(2.42796 0 0)
(2.43656 0 0)
(2.44516 0 0)
(2.45376 0 0)
(2.46237 0 0)
(2.47098 0 0)
(2.47959 0 0)
(2.4882 0 0)
(2.49681 0 0)
(2.50542 0 0)
(2.51404 0 0)
(2.52265 0 0)
(2.53127 0 0)
(2.53988 0 0)
(2.5485 0 0)
(2.55711 0 0)
(2.56573 0 0)
(2.57434 0 0)
(2.58295 0 0)
(2.59156 0 0)
(2.60016 0 0)
(2.60877 0 0)
(2.61737 0 0)
(2.62596 0 0)
(2.63455 0 0)
(2.64314 0 0)
(2.65173 0 0)
(2.6603 0 0)
(2.66888 0 0)
(2.67744 0 0)
(2.686 0 0)
(2.69456 0 0)
(2.7031 0 0)
(2.71164 0 0)
(2.72017 0 0)
(2.72869 0 0)
(2.73719 0 0)
(2.74569 0 0)
(2.75418 0 0)
(2.76265 0 0)
(2.77112 0 0)
(2.77957 0 0)
(2.788 0 0)
(2.79642 0 0)
(2.80483 0 0)
(2.81322 0 0)
(2.82159 0 0)
(2.82994 0 0)
(2.83827 0 0)
(2.84659 0 0)
(2.85488 0 0)
(2.86315 0 0)
(2.8714 0 0)
(2.87962 0 0)
(2.88782 0 0)
(2.896 0 0)
(2.90414 0 0)
(2.91226 0 0)
(2.92034 0 0)
(2.9284 0 0)
(2.93642 0 0)
(2.9444 0 0)
(2.95235 0 0)
(2.96027 0 0)
(2.96814 0 0)
(2.97597 0 0)
(2.98376 0 0)
(2.99151 0 0)
(2.99921 0 0)
(3.00686 0 0)
(3.01446 0 0)
(3.022 0 0)
(3.0295 0 0)
(3.03693 0 0)
(3.04431 0 0)
(3.05162 0 0)
(3.05887 0 0)
(3.06606 0 0)
(3.07317 0 0)
(3.08021 0 0)
(3.08717 0 0)
(3.09406 0 0)
(3.10087 0 0)
(3.10758 0 0)
(3.11421 0 0)
(3.12075 0 0)
(3.12719 0 0)
(3.13354 0 0)
(3.13978 0 0)
(3.14591 0 0)
(3.15193 0 0)
(3.15783 0 0)
(3.16361 0 0)
(3.16927 0 0)
(3.17479 0 0)
(3.18018 0 0)
(3.18543 0 0)
(3.19054 0 0)
(3.19549 0 0)
(3.20028 0 0)
(3.20491 0 0)
(3.20937 0 0)
(3.21365 0 0)
(3.21775 0 0)
(3.22166 0 0)
(3.22537 0 0)
(3.22888 0 0)
(3.23218 0 0)
(3.23526 0 0)
(3.23811 0 0)
(3.24072 0 0)
(3.24309 0 0)
(3.24521 0 0)
(3.24707 0 0)
(3.24865 0 0)
(3.24995 0 0)
(3.25097 0 0)
(3.25168 0 0)
(3.25209 0 0)
(3.25217 0 0)
(3.25192 0 0)
(3.25133 0 0)
(3.25039 0 0)
(3.24908 0 0)
(3.24739 0 0)
(3.24532 0 0)
(3.24285 0 0)
(3.23996 0 0)
(3.23665 0 0)
(3.23291 0 0)
(3.22871 0 0)
(3.22405 0 0)
(3.21892 0 0)
(3.2133 0 0)
(3.20718 0 0)
(3.20055 0 0)
(3.19339 0 0)
(3.18569 0 0)
(3.17744 0 0)
(3.16862 0 0)
(3.15923 0 0)
(3.14925 0 0)
(3.13866 0 0)
(3.12747 0 0)
(3.11565 0 0)
(3.1032 0 0)
(3.0901 0 0)
(3.07635 0 0)
(3.06194 0 0)
(3.04685 0 0)
(3.03108 0 0)
(3.01463 0 0)
(2.99748 0 0)
(2.97963 0 0)
(2.96109 0 0)
(2.94183 0 0)
(2.92187 0 0)
(2.9012 0 0)
(2.87982 0 0)
(2.85773 0 0)
(2.83494 0 0)
(2.81146 0 0)
(2.78727 0 0)
(2.7624 0 0)
(2.73686 0 0)
(2.71065 0 0)
(2.68378 0 0)
(2.65627 0 0)
(2.62814 0 0)
(2.5994 0 0)
(2.57007 0 0)
(2.54017 0 0)
(2.50972 0 0)
(2.47875 0 0)
(2.44728 0 0)
(2.41534 0 0)
(2.38296 0 0)
(2.35015 0 0)
(2.31697 0 0)
(2.28343 0 0)
(2.24957 0 0)
(2.21542 0 0)
(2.18102 0 0)
(2.14641 0 0)
(2.11161 0 0)
(2.07667 0 0)
(2.04162 0 0)
(2.0065 0 0)
(1.97135 0 0)
(1.9362 0 0)
(1.90109 0 0)
(1.86606 0 0)
(1.83113 0 0)
(1.79636 0 0)
(1.76177 0 0)
(1.72739 0 0)
(1.69326 0 0)
(1.65942 0 0)
(1.62588 0 0)
(1.59268 0 0)
(1.55986 0 0)
(1.52743 0 0)
(1.49542 0 0)
(1.46385 0 0)
(1.43275 0 0)
(1.40214 0 0)
(1.37204 0 0)
(1.34245 0 0)
(1.31341 0 0)
(1.28492 0 0)
(1.257 0 0)
(1.22965 0 0)
(1.20289 0 0)
(1.17672 0 0)
(1.15116 0 0)
(1.1262 0 0)
(1.10185 0 0)
(1.07811 0 0)
(1.05498 0 0)
(1.03246 0 0)
(1.01056 0 0)
(0.989259 0 0)
(0.968566 0 0)
(0.948472 0 0)
(0.928972 0 0)
(0.91006 0 0)
(0.891729 0 0)
(0.873972 0 0)
(0.856779 0 0)
(0.840141 0 0)
(0.82405 0 0)
(0.808495 0 0)
(0.793466 0 0)
(0.778952 0 0)
(0.764943 0 0)
(0.751426 0 0)
(0.73839 0 0)
(0.725825 0 0)
(0.713717 0 0)
(0.702055 0 0)
(0.690828 0 0)
(0.680022 0 0)
(0.669627 0 0)
(0.659631 0 0)
(0.650021 0 0)
(0.640787 0 0)
(0.631916 0 0)
(0.623397 0 0)
(0.615218 0 0)
(0.607369 0 0)
(0.599839 0 0)
(0.592617 0 0)
(0.585692 0 0)
(0.579054 0 0)
(0.572693 0 0)
(0.566599 0 0)
(0.560763 0 0)
(0.555174 0 0)
(0.549825 0 0)
(0.544705 0 0)
(0.539807 0 0)
(0.535121 0 0)
(0.53064 0 0)
(0.526355 0 0)
(0.52226 0 0)
(0.518346 0 0)
(0.514606 0 0)
(0.511033 0 0)
(0.507621 0 0)
(0.504363 0 0)
(0.501252 0 0)
(0.498283 0 0)
(0.495449 0 0)
(0.492746 0 0)
(0.490167 0 0)
(0.487707 0 0)
(0.485361 0 0)
(0.483124 0 0)
(0.480992 0 0)
(0.478959 0 0)
(0.477022 0 0)
(0.475177 0 0)
(0.473419 0 0)
(0.471745 0 0)
(0.47015 0 0)
(0.468632 0 0)
(0.467186 0 0)
(0.46581 0 0)
(0.464501 0 0)
(0.463254 0 0)
(0.462069 0 0)
(0.460941 0 0)
(0.459868 0 0)
(0.458847 0 0)
(0.457877 0 0)
(0.456955 0 0)
(0.456078 0 0)
(0.455244 0 0)
(0.454452 0 0)
(0.453699 0 0)
(0.452984 0 0)
(0.452305 0 0)
(0.45166 0 0)
(0.451047 0 0)
(0.450465 0 0)
(0.449912 0 0)
(0.449388 0 0)
(0.44889 0 0)
(0.448417 0 0)
(0.447969 0 0)
(0.447544 0 0)
(0.44714 0 0)
(0.446757 0 0)
(0.446394 0 0)
(0.44605 0 0)
(0.445723 0 0)
(0.445414 0 0)
(0.44512 0 0)
(0.444842 0 0)
(0.444578 0 0)
(0.444329 0 0)
(0.444092 0 0)
(0.443868 0 0)
(0.443655 0 0)
(0.443454 0 0)
(0.443264 0 0)
(0.443083 0 0)
(0.442912 0 0)
(0.442751 0 0)
(0.442598 0 0)
(0.442453 0 0)
(0.442316 0 0)
(0.442186 0 0)
(0.442063 0 0)
(0.441947 0 0)
(0.441837 0 0)
(0.441734 0 0)
(0.441635 0 0)
(0.441543 0 0)
(0.441455 0 0)
(0.441372 0 0)
(0.441293 0 0)
(0.441219 0 0)
(0.441149 0 0)
(0.441083 0 0)
(0.441021 0 0)
(0.440962 0 0)
(0.440906 0 0)
(0.440853 0 0)
(0.440803 0 0)
)
;

boundaryField
{
    topWall
    {
        type            empty;
    }
    bottomWall
    {
        type            empty;
    }
    leftAndRight_half1
    {
        type            cyclic;
    }
    leftAndRight_half0
    {
        type            cyclic;
    }
    frontAndBack
    {
        type            empty;
    }
}


// ************************************************************************* //
