/*--------------------------------*- C++ -*----------------------------------*\
  =========                 |
  \\      /  F ield         | OpenFOAM: The Open Source CFD Toolbox
   \\    /   O peration     | Website:  https://openfoam.org
    \\  /    A nd           | Version:  9
     \\/     M anipulation  |
\*---------------------------------------------------------------------------*/
FoamFile
{
    format      ascii;
    class       volVectorField;
    location    "4.75";
    object      U;
}
// * * * * * * * * * * * * * * * * * * * * * * * * * * * * * * * * * * * * * //

dimensions      [0 1 -1 0 0 0 0];

internalField   nonuniform List<vector> 
1000
(
(0.13177 0 0)
(0.131695 0 0)
(0.13177 0 0)
(0.131694 0 0)
(0.131771 0 0)
(0.131694 0 0)
(0.131771 0 0)
(0.131693 0 0)
(0.131772 0 0)
(0.131693 0 0)
(0.131772 0 0)
(0.131692 0 0)
(0.131773 0 0)
(0.131692 0 0)
(0.131773 0 0)
(0.131692 0 0)
(0.131774 0 0)
(0.131692 0 0)
(0.131775 0 0)
(0.131692 0 0)
(0.131775 0 0)
(0.131693 0 0)
(0.131776 0 0)
(0.131693 0 0)
(0.131777 0 0)
(0.131694 0 0)
(0.131778 0 0)
(0.131695 0 0)
(0.131779 0 0)
(0.131696 0 0)
(0.13178 0 0)
(0.131698 0 0)
(0.131781 0 0)
(0.131699 0 0)
(0.131783 0 0)
(0.131702 0 0)
(0.131784 0 0)
(0.131704 0 0)
(0.131786 0 0)
(0.131707 0 0)
(0.131788 0 0)
(0.13171 0 0)
(0.131791 0 0)
(0.131713 0 0)
(0.131794 0 0)
(0.131717 0 0)
(0.131797 0 0)
(0.131721 0 0)
(0.1318 0 0)
(0.131726 0 0)
(0.131804 0 0)
(0.131732 0 0)
(0.131808 0 0)
(0.131737 0 0)
(0.131813 0 0)
(0.131744 0 0)
(0.131818 0 0)
(0.131751 0 0)
(0.131823 0 0)
(0.131759 0 0)
(0.13183 0 0)
(0.131767 0 0)
(0.131837 0 0)
(0.131776 0 0)
(0.131844 0 0)
(0.131786 0 0)
(0.131853 0 0)
(0.131796 0 0)
(0.131862 0 0)
(0.131808 0 0)
(0.131871 0 0)
(0.13182 0 0)
(0.131882 0 0)
(0.131834 0 0)
(0.131894 0 0)
(0.131848 0 0)
(0.131907 0 0)
(0.131863 0 0)
(0.13192 0 0)
(0.131879 0 0)
(0.131935 0 0)
(0.131897 0 0)
(0.131952 0 0)
(0.131914 0 0)
(0.131971 0 0)
(0.13193 0 0)
(0.131996 0 0)
(0.131941 0 0)
(0.132031 0 0)
(0.131941 0 0)
(0.132086 0 0)
(0.131925 0 0)
(0.132164 0 0)
(0.131901 0 0)
(0.132252 0 0)
(0.131909 0 0)
(0.132314 0 0)
(0.131999 0 0)
(0.132343 0 0)
(0.132164 0 0)
(0.132395 0 0)
(0.13233 0 0)
(0.132495 0 0)
(0.132469 0 0)
(0.132607 0 0)
(0.13258 0 0)
(0.132701 0 0)
(0.132664 0 0)
(0.13277 0 0)
(0.132724 0 0)
(0.132816 0 0)
(0.132766 0 0)
(0.132846 0 0)
(0.132795 0 0)
(0.132868 0 0)
(0.132818 0 0)
(0.132886 0 0)
(0.132839 0 0)
(0.132902 0 0)
(0.132859 0 0)
(0.132919 0 0)
(0.13288 0 0)
(0.132937 0 0)
(0.1329 0 0)
(0.132955 0 0)
(0.132922 0 0)
(0.132974 0 0)
(0.132944 0 0)
(0.132993 0 0)
(0.132967 0 0)
(0.133014 0 0)
(0.13299 0 0)
(0.133035 0 0)
(0.133014 0 0)
(0.133057 0 0)
(0.133039 0 0)
(0.133079 0 0)
(0.133064 0 0)
(0.133102 0 0)
(0.133089 0 0)
(0.133126 0 0)
(0.133115 0 0)
(0.13315 0 0)
(0.133141 0 0)
(0.133174 0 0)
(0.133168 0 0)
(0.133199 0 0)
(0.133194 0 0)
(0.133224 0 0)
(0.133221 0 0)
(0.13325 0 0)
(0.133248 0 0)
(0.133275 0 0)
(0.133275 0 0)
(0.133301 0 0)
(0.133302 0 0)
(0.133327 0 0)
(0.133329 0 0)
(0.133353 0 0)
(0.133356 0 0)
(0.133378 0 0)
(0.133383 0 0)
(0.133404 0 0)
(0.133409 0 0)
(0.133429 0 0)
(0.133435 0 0)
(0.133454 0 0)
(0.13346 0 0)
(0.133478 0 0)
(0.133485 0 0)
(0.133502 0 0)
(0.133509 0 0)
(0.133525 0 0)
(0.133532 0 0)
(0.133547 0 0)
(0.133555 0 0)
(0.133569 0 0)
(0.133576 0 0)
(0.13359 0 0)
(0.133597 0 0)
(0.133609 0 0)
(0.133616 0 0)
(0.133628 0 0)
(0.133635 0 0)
(0.133645 0 0)
(0.133652 0 0)
(0.13366 0 0)
(0.133669 0 0)
(0.133673 0 0)
(0.133684 0 0)
(0.133685 0 0)
(0.133698 0 0)
(0.133696 0 0)
(0.133709 0 0)
(0.133707 0 0)
(0.133717 0 0)
(0.133718 0 0)
(0.133726 0 0)
(0.13373 0 0)
(0.133741 0 0)
(0.133748 0 0)
(0.13376 0 0)
(0.133765 0 0)
(0.133762 0 0)
(0.133734 0 0)
(0.133684 0 0)
(0.133605 0 0)
(0.133519 0 0)
(0.133428 0 0)
(0.133354 0 0)
(0.133293 0 0)
(0.133254 0 0)
(0.133227 0 0)
(0.133214 0 0)
(0.133205 0 0)
(0.133204 0 0)
(0.133204 0 0)
(0.133207 0 0)
(0.133209 0 0)
(0.133213 0 0)
(0.133215 0 0)
(0.133219 0 0)
(0.13322 0 0)
(0.133224 0 0)
(0.133224 0 0)
(0.133227 0 0)
(0.133227 0 0)
(0.133229 0 0)
(0.133228 0 0)
(0.133229 0 0)
(0.133227 0 0)
(0.133227 0 0)
(0.133225 0 0)
(0.133224 0 0)
(0.133221 0 0)
(0.13322 0 0)
(0.133216 0 0)
(0.133213 0 0)
(0.133209 0 0)
(0.133206 0 0)
(0.133201 0 0)
(0.133197 0 0)
(0.133191 0 0)
(0.133186 0 0)
(0.13318 0 0)
(0.133175 0 0)
(0.133168 0 0)
(0.133161 0 0)
(0.133154 0 0)
(0.133147 0 0)
(0.133139 0 0)
(0.133131 0 0)
(0.133122 0 0)
(0.133114 0 0)
(0.133105 0 0)
(0.133096 0 0)
(0.133086 0 0)
(0.133077 0 0)
(0.133066 0 0)
(0.133057 0 0)
(0.133046 0 0)
(0.133035 0 0)
(0.133024 0 0)
(0.133013 0 0)
(0.133001 0 0)
(0.13299 0 0)
(0.132978 0 0)
(0.132966 0 0)
(0.132954 0 0)
(0.132941 0 0)
(0.132929 0 0)
(0.132916 0 0)
(0.132903 0 0)
(0.13289 0 0)
(0.132877 0 0)
(0.132864 0 0)
(0.13285 0 0)
(0.132837 0 0)
(0.132823 0 0)
(0.132809 0 0)
(0.132795 0 0)
(0.132781 0 0)
(0.132767 0 0)
(0.132753 0 0)
(0.132739 0 0)
(0.132725 0 0)
(0.132711 0 0)
(0.132697 0 0)
(0.132682 0 0)
(0.132668 0 0)
(0.132654 0 0)
(0.132639 0 0)
(0.132625 0 0)
(0.132611 0 0)
(0.132596 0 0)
(0.132582 0 0)
(0.132568 0 0)
(0.132554 0 0)
(0.132539 0 0)
(0.132525 0 0)
(0.132511 0 0)
(0.132497 0 0)
(0.132483 0 0)
(0.132469 0 0)
(0.132456 0 0)
(0.132442 0 0)
(0.132428 0 0)
(0.132415 0 0)
(0.132401 0 0)
(0.132388 0 0)
(0.132375 0 0)
(0.132362 0 0)
(0.132349 0 0)
(0.132336 0 0)
(0.132323 0 0)
(0.13231 0 0)
(0.132298 0 0)
(0.132286 0 0)
(0.132273 0 0)
(0.132261 0 0)
(0.132249 0 0)
(0.132237 0 0)
(0.132226 0 0)
(0.132214 0 0)
(0.132203 0 0)
(0.132192 0 0)
(0.132181 0 0)
(0.13217 0 0)
(0.132159 0 0)
(0.132149 0 0)
(0.132138 0 0)
(0.132128 0 0)
(0.132118 0 0)
(0.132108 0 0)
(0.132098 0 0)
(0.132089 0 0)
(0.132079 0 0)
(0.13207 0 0)
(0.132061 0 0)
(0.132052 0 0)
(0.132043 0 0)
(0.132035 0 0)
(0.132026 0 0)
(0.132018 0 0)
(0.13201 0 0)
(0.132002 0 0)
(0.131994 0 0)
(0.131987 0 0)
(0.131979 0 0)
(0.131972 0 0)
(0.131965 0 0)
(0.131958 0 0)
(0.131951 0 0)
(0.131944 0 0)
(0.131938 0 0)
(0.131932 0 0)
(0.131925 0 0)
(0.131919 0 0)
(0.131913 0 0)
(0.131908 0 0)
(0.131902 0 0)
(0.131897 0 0)
(0.131891 0 0)
(0.131886 0 0)
(0.131881 0 0)
(0.131876 0 0)
(0.131872 0 0)
(0.131867 0 0)
(0.131862 0 0)
(0.131858 0 0)
(0.131854 0 0)
(0.13185 0 0)
(0.131846 0 0)
(0.131842 0 0)
(0.131838 0 0)
(0.131834 0 0)
(0.131831 0 0)
(0.131827 0 0)
(0.131824 0 0)
(0.131821 0 0)
(0.131817 0 0)
(0.131814 0 0)
(0.131811 0 0)
(0.131809 0 0)
(0.131806 0 0)
(0.131803 0 0)
(0.131801 0 0)
(0.131798 0 0)
(0.131796 0 0)
(0.131793 0 0)
(0.131791 0 0)
(0.131789 0 0)
(0.131787 0 0)
(0.131785 0 0)
(0.131783 0 0)
(0.131781 0 0)
(0.131779 0 0)
(0.131777 0 0)
(0.131776 0 0)
(0.131774 0 0)
(0.131773 0 0)
(0.131771 0 0)
(0.13177 0 0)
(0.131768 0 0)
(0.131767 0 0)
(0.131766 0 0)
(0.131764 0 0)
(0.131763 0 0)
(0.131762 0 0)
(0.131761 0 0)
(0.13176 0 0)
(0.131759 0 0)
(0.131758 0 0)
(0.131757 0 0)
(0.131756 0 0)
(0.131755 0 0)
(0.131754 0 0)
(0.131754 0 0)
(0.131753 0 0)
(0.131752 0 0)
(0.131751 0 0)
(0.131751 0 0)
(0.13175 0 0)
(0.13175 0 0)
(0.131749 0 0)
(0.131748 0 0)
(0.131748 0 0)
(0.131747 0 0)
(0.131747 0 0)
(0.131746 0 0)
(0.131746 0 0)
(0.131746 0 0)
(0.131745 0 0)
(0.131745 0 0)
(0.131745 0 0)
(0.131744 0 0)
(0.131744 0 0)
(0.131744 0 0)
(0.131743 0 0)
(0.131743 0 0)
(0.131743 0 0)
(0.131742 0 0)
(0.131742 0 0)
(0.131742 0 0)
(0.131742 0 0)
(0.131742 0 0)
(0.131741 0 0)
(0.131741 0 0)
(0.131741 0 0)
(0.131741 0 0)
(0.131741 0 0)
(0.131741 0 0)
(0.13174 0 0)
(0.13174 0 0)
(0.13174 0 0)
(0.13174 0 0)
(0.13174 0 0)
(0.13174 0 0)
(0.13174 0 0)
(0.13174 0 0)
(0.131739 0 0)
(0.131739 0 0)
(0.131739 0 0)
(0.131739 0 0)
(0.131739 0 0)
(0.131739 0 0)
(0.131739 0 0)
(0.131739 0 0)
(0.131739 0 0)
(0.131739 0 0)
(0.131739 0 0)
(0.131739 0 0)
(0.131739 0 0)
(0.131739 0 0)
(0.131739 0 0)
(0.131739 0 0)
(0.131739 0 0)
(0.131738 0 0)
(0.131738 0 0)
(0.131738 0 0)
(0.131738 0 0)
(0.131738 0 0)
(0.131738 0 0)
(0.131738 0 0)
(0.131738 0 0)
(0.131738 0 0)
(0.131738 0 0)
(0.131738 0 0)
(0.131738 0 0)
(0.131738 0 0)
(0.131738 0 0)
(0.131738 0 0)
(0.131738 0 0)
(0.131738 0 0)
(0.131738 0 0)
(0.131738 0 0)
(0.131738 0 0)
(0.131738 0 0)
(0.131738 0 0)
(0.131738 0 0)
(0.131738 0 0)
(0.131738 0 0)
(0.131738 0 0)
(0.131738 0 0)
(0.131738 0 0)
(0.131738 0 0)
(0.131738 0 0)
(0.131738 0 0)
(0.131738 0 0)
(0.131738 0 0)
(0.131738 0 0)
(0.131738 0 0)
(0.131738 0 0)
(0.131738 0 0)
(0.131738 0 0)
(0.131738 0 0)
(0.131738 0 0)
(0.131738 0 0)
(0.131738 0 0)
(0.131738 0 0)
(0.131738 0 0)
(0.131738 0 0)
(0.131738 0 0)
(0.131738 0 0)
(0.131738 0 0)
(0.131738 0 0)
(0.131738 0 0)
(0.131738 0 0)
(0.131738 0 0)
(0.131738 0 0)
(0.131738 0 0)
(0.131738 0 0)
(0.131738 0 0)
(0.131738 0 0)
(0.131738 0 0)
(0.131738 0 0)
(0.131738 0 0)
(0.131738 0 0)
(0.131738 0 0)
(0.131738 0 0)
(0.131738 0 0)
(0.131738 0 0)
(0.131738 0 0)
(0.131738 0 0)
(0.131738 0 0)
(0.131738 0 0)
(0.131738 0 0)
(0.131738 0 0)
(0.131738 0 0)
(0.131738 0 0)
(0.131738 0 0)
(0.131738 0 0)
(0.131738 0 0)
(0.131738 0 0)
(0.131738 0 0)
(0.131738 0 0)
(0.131738 0 0)
(0.131738 0 0)
(0.131738 0 0)
(0.131738 0 0)
(0.131738 0 0)
(0.131738 0 0)
(0.131738 0 0)
(0.131738 0 0)
(0.131738 0 0)
(0.131738 0 0)
(0.131738 0 0)
(0.131738 0 0)
(0.131738 0 0)
(0.131738 0 0)
(0.131738 0 0)
(0.131738 0 0)
(0.131738 0 0)
(0.131738 0 0)
(0.131738 0 0)
(0.131738 0 0)
(0.131738 0 0)
(0.131738 0 0)
(0.131738 0 0)
(0.131738 0 0)
(0.131738 0 0)
(0.131738 0 0)
(0.131738 0 0)
(0.131738 0 0)
(0.131738 0 0)
(0.131738 0 0)
(0.131738 0 0)
(0.131738 0 0)
(0.131738 0 0)
(0.131738 0 0)
(0.131738 0 0)
(0.131738 0 0)
(0.131738 0 0)
(0.131738 0 0)
(0.131738 0 0)
(0.131738 0 0)
(0.131738 0 0)
(0.131738 0 0)
(0.131738 0 0)
(0.131738 0 0)
(0.131738 0 0)
(0.131738 0 0)
(0.131738 0 0)
(0.131738 0 0)
(0.131738 0 0)
(0.131738 0 0)
(0.131738 0 0)
(0.131738 0 0)
(0.131738 0 0)
(0.131738 0 0)
(0.131738 0 0)
(0.131738 0 0)
(0.131738 0 0)
(0.131738 0 0)
(0.131738 0 0)
(0.131738 0 0)
(0.131738 0 0)
(0.131738 0 0)
(0.131738 0 0)
(0.131738 0 0)
(0.131738 0 0)
(0.131738 0 0)
(0.131738 0 0)
(0.131738 0 0)
(0.131738 0 0)
(0.131738 0 0)
(0.131738 0 0)
(0.131738 0 0)
(0.131738 0 0)
(0.131738 0 0)
(0.131738 0 0)
(0.131738 0 0)
(0.131738 0 0)
(0.131738 0 0)
(0.131738 0 0)
(0.131738 0 0)
(0.131738 0 0)
(0.131738 0 0)
(0.131738 0 0)
(0.131738 0 0)
(0.131738 0 0)
(0.131738 0 0)
(0.131738 0 0)
(0.131738 0 0)
(0.131738 0 0)
(0.131738 0 0)
(0.131738 0 0)
(0.131738 0 0)
(0.131738 0 0)
(0.131738 0 0)
(0.131738 0 0)
(0.131738 0 0)
(0.131738 0 0)
(0.131738 0 0)
(0.131738 0 0)
(0.131738 0 0)
(0.131738 0 0)
(0.131738 0 0)
(0.131738 0 0)
(0.131738 0 0)
(0.131738 0 0)
(0.131738 0 0)
(0.131738 0 0)
(0.131738 0 0)
(0.131738 0 0)
(0.131738 0 0)
(0.131738 0 0)
(0.131738 0 0)
(0.131738 0 0)
(0.131738 0 0)
(0.131738 0 0)
(0.131738 0 0)
(0.131738 0 0)
(0.131738 0 0)
(0.131738 0 0)
(0.131738 0 0)
(0.131738 0 0)
(0.131738 0 0)
(0.131738 0 0)
(0.131738 0 0)
(0.131738 0 0)
(0.131738 0 0)
(0.131738 0 0)
(0.131738 0 0)
(0.131738 0 0)
(0.131738 0 0)
(0.131738 0 0)
(0.131738 0 0)
(0.131738 0 0)
(0.131738 0 0)
(0.131738 0 0)
(0.131738 0 0)
(0.131738 0 0)
(0.131738 0 0)
(0.131738 0 0)
(0.131738 0 0)
(0.131738 0 0)
(0.131738 0 0)
(0.131738 0 0)
(0.131738 0 0)
(0.131738 0 0)
(0.131738 0 0)
(0.131738 0 0)
(0.131738 0 0)
(0.131738 0 0)
(0.131738 0 0)
(0.131738 0 0)
(0.131738 0 0)
(0.131738 0 0)
(0.131738 0 0)
(0.131738 0 0)
(0.131738 0 0)
(0.131738 0 0)
(0.131738 0 0)
(0.131738 0 0)
(0.131738 0 0)
(0.131738 0 0)
(0.131738 0 0)
(0.131738 0 0)
(0.131738 0 0)
(0.131738 0 0)
(0.131738 0 0)
(0.131738 0 0)
(0.131738 0 0)
(0.131738 0 0)
(0.131738 0 0)
(0.131738 0 0)
(0.131738 0 0)
(0.131738 0 0)
(0.131738 0 0)
(0.131738 0 0)
(0.131738 0 0)
(0.131738 0 0)
(0.131738 0 0)
(0.131738 0 0)
(0.131738 0 0)
(0.131738 0 0)
(0.131738 0 0)
(0.131738 0 0)
(0.131738 0 0)
(0.131738 0 0)
(0.131738 0 0)
(0.131738 0 0)
(0.131738 0 0)
(0.131738 0 0)
(0.131738 0 0)
(0.131738 0 0)
(0.131738 0 0)
(0.131738 0 0)
(0.131738 0 0)
(0.131738 0 0)
(0.131738 0 0)
(0.131738 0 0)
(0.131738 0 0)
(0.131738 0 0)
(0.131738 0 0)
(0.131738 0 0)
(0.131738 0 0)
(0.131738 0 0)
(0.131738 0 0)
(0.131738 0 0)
(0.131738 0 0)
(0.131738 0 0)
(0.131738 0 0)
(0.131738 0 0)
(0.131738 0 0)
(0.131738 0 0)
(0.131738 0 0)
(0.131738 0 0)
(0.131738 0 0)
(0.131738 0 0)
(0.131738 0 0)
(0.131738 0 0)
(0.131738 0 0)
(0.131738 0 0)
(0.131738 0 0)
(0.131738 0 0)
(0.131738 0 0)
(0.131738 0 0)
(0.131738 0 0)
(0.131738 0 0)
(0.131738 0 0)
(0.131738 0 0)
(0.131738 0 0)
(0.131738 0 0)
(0.131738 0 0)
(0.131738 0 0)
(0.131738 0 0)
(0.131738 0 0)
(0.131738 0 0)
(0.131738 0 0)
(0.131738 0 0)
(0.131738 0 0)
(0.131738 0 0)
(0.131738 0 0)
(0.131738 0 0)
(0.131738 0 0)
(0.131738 0 0)
(0.131738 0 0)
(0.131738 0 0)
(0.131738 0 0)
(0.131738 0 0)
(0.131738 0 0)
(0.131738 0 0)
(0.131738 0 0)
(0.131738 0 0)
(0.131738 0 0)
(0.131738 0 0)
(0.131738 0 0)
(0.131738 0 0)
(0.131738 0 0)
(0.131738 0 0)
(0.131738 0 0)
(0.131738 0 0)
(0.131738 0 0)
(0.131738 0 0)
(0.131738 0 0)
(0.131738 0 0)
(0.131738 0 0)
(0.131738 0 0)
(0.131738 0 0)
(0.131738 0 0)
(0.131738 0 0)
(0.131738 0 0)
(0.131738 0 0)
(0.131738 0 0)
(0.131738 0 0)
(0.131738 0 0)
(0.131738 0 0)
(0.131738 0 0)
(0.131738 0 0)
(0.131738 0 0)
(0.131738 0 0)
(0.131738 0 0)
(0.131738 0 0)
(0.131738 0 0)
(0.131738 0 0)
(0.131738 0 0)
(0.131738 0 0)
(0.131738 0 0)
(0.131738 0 0)
(0.131738 0 0)
(0.131738 0 0)
(0.131738 0 0)
(0.131738 0 0)
(0.131738 0 0)
(0.131738 0 0)
(0.131738 0 0)
(0.131738 0 0)
(0.131738 0 0)
(0.131738 0 0)
(0.131738 0 0)
(0.131738 0 0)
(0.131738 0 0)
(0.131738 0 0)
(0.131738 0 0)
(0.131738 0 0)
(0.131738 0 0)
(0.131738 0 0)
(0.131737 0 0)
(0.131739 0 0)
(0.131737 0 0)
(0.131739 0 0)
(0.131737 0 0)
(0.131739 0 0)
(0.131737 0 0)
(0.131739 0 0)
(0.131737 0 0)
(0.131739 0 0)
(0.131737 0 0)
(0.131739 0 0)
(0.131737 0 0)
(0.131739 0 0)
(0.131737 0 0)
(0.131739 0 0)
(0.131737 0 0)
(0.131739 0 0)
(0.131737 0 0)
(0.131739 0 0)
(0.131737 0 0)
(0.131739 0 0)
(0.131736 0 0)
(0.13174 0 0)
(0.131736 0 0)
(0.13174 0 0)
(0.131736 0 0)
(0.13174 0 0)
(0.131736 0 0)
(0.13174 0 0)
(0.131736 0 0)
(0.13174 0 0)
(0.131736 0 0)
(0.13174 0 0)
(0.131735 0 0)
(0.131741 0 0)
(0.131735 0 0)
(0.131741 0 0)
(0.131735 0 0)
(0.131741 0 0)
(0.131735 0 0)
(0.131741 0 0)
(0.131734 0 0)
(0.131742 0 0)
(0.131734 0 0)
(0.131742 0 0)
(0.131734 0 0)
(0.131742 0 0)
(0.131734 0 0)
(0.131742 0 0)
(0.131733 0 0)
(0.131743 0 0)
(0.131733 0 0)
(0.131743 0 0)
(0.131732 0 0)
(0.131743 0 0)
(0.131732 0 0)
(0.131744 0 0)
(0.131732 0 0)
(0.131744 0 0)
(0.131731 0 0)
(0.131745 0 0)
(0.131731 0 0)
(0.131745 0 0)
(0.13173 0 0)
(0.131746 0 0)
(0.13173 0 0)
(0.131746 0 0)
(0.131729 0 0)
(0.131747 0 0)
(0.131728 0 0)
(0.131747 0 0)
(0.131728 0 0)
(0.131748 0 0)
(0.131727 0 0)
(0.131748 0 0)
(0.131726 0 0)
(0.131749 0 0)
(0.131726 0 0)
(0.131749 0 0)
(0.131725 0 0)
(0.13175 0 0)
(0.131724 0 0)
(0.131751 0 0)
(0.131723 0 0)
(0.131751 0 0)
(0.131723 0 0)
(0.131752 0 0)
(0.131722 0 0)
(0.131753 0 0)
(0.131721 0 0)
(0.131753 0 0)
(0.13172 0 0)
(0.131754 0 0)
(0.131719 0 0)
(0.131755 0 0)
(0.131718 0 0)
(0.131755 0 0)
(0.131717 0 0)
(0.131756 0 0)
(0.131716 0 0)
(0.131757 0 0)
(0.131715 0 0)
(0.131758 0 0)
(0.131714 0 0)
(0.131758 0 0)
(0.131713 0 0)
(0.131759 0 0)
(0.131712 0 0)
(0.13176 0 0)
(0.131711 0 0)
(0.13176 0 0)
(0.13171 0 0)
(0.131761 0 0)
(0.131709 0 0)
(0.131762 0 0)
(0.131708 0 0)
(0.131763 0 0)
(0.131707 0 0)
(0.131763 0 0)
(0.131706 0 0)
(0.131764 0 0)
(0.131704 0 0)
(0.131765 0 0)
(0.131703 0 0)
(0.131765 0 0)
(0.131702 0 0)
(0.131766 0 0)
(0.131701 0 0)
(0.131767 0 0)
(0.1317 0 0)
(0.131767 0 0)
(0.131699 0 0)
(0.131768 0 0)
(0.131698 0 0)
(0.131768 0 0)
(0.131697 0 0)
(0.131769 0 0)
(0.131696 0 0)
(0.131769 0 0)
(0.131696 0 0)
)
;

boundaryField
{
    topWall
    {
        type            empty;
    }
    bottomWall
    {
        type            empty;
    }
    leftAndRight_half1
    {
        type            cyclic;
    }
    leftAndRight_half0
    {
        type            cyclic;
    }
    frontAndBack
    {
        type            empty;
    }
}


// ************************************************************************* //
