/*--------------------------------*- C++ -*----------------------------------*\
  =========                 |
  \\      /  F ield         | OpenFOAM: The Open Source CFD Toolbox
   \\    /   O peration     | Website:  https://openfoam.org
    \\  /    A nd           | Version:  9
     \\/     M anipulation  |
\*---------------------------------------------------------------------------*/
FoamFile
{
    format      ascii;
    class       volVectorField;
    location    "2.2";
    object      U;
}
// * * * * * * * * * * * * * * * * * * * * * * * * * * * * * * * * * * * * * //

dimensions      [0 1 -1 0 0 0 0];

internalField   nonuniform List<vector> 
1000
(
(0.131757 0 0)
(0.131707 0 0)
(0.131758 0 0)
(0.131704 0 0)
(0.131759 0 0)
(0.131701 0 0)
(0.13176 0 0)
(0.131698 0 0)
(0.131761 0 0)
(0.131695 0 0)
(0.131762 0 0)
(0.131692 0 0)
(0.131763 0 0)
(0.131689 0 0)
(0.131764 0 0)
(0.131685 0 0)
(0.131765 0 0)
(0.131681 0 0)
(0.131765 0 0)
(0.131677 0 0)
(0.131766 0 0)
(0.131673 0 0)
(0.131766 0 0)
(0.131669 0 0)
(0.131766 0 0)
(0.131665 0 0)
(0.131766 0 0)
(0.131661 0 0)
(0.131766 0 0)
(0.131657 0 0)
(0.131766 0 0)
(0.131652 0 0)
(0.131765 0 0)
(0.131648 0 0)
(0.131764 0 0)
(0.131644 0 0)
(0.131764 0 0)
(0.13164 0 0)
(0.131762 0 0)
(0.131636 0 0)
(0.131761 0 0)
(0.131632 0 0)
(0.13176 0 0)
(0.131628 0 0)
(0.131758 0 0)
(0.131625 0 0)
(0.131757 0 0)
(0.131622 0 0)
(0.131755 0 0)
(0.131619 0 0)
(0.131753 0 0)
(0.131617 0 0)
(0.131752 0 0)
(0.131615 0 0)
(0.13175 0 0)
(0.131614 0 0)
(0.131749 0 0)
(0.131613 0 0)
(0.131748 0 0)
(0.131613 0 0)
(0.131747 0 0)
(0.131614 0 0)
(0.131747 0 0)
(0.131616 0 0)
(0.131748 0 0)
(0.131619 0 0)
(0.131749 0 0)
(0.131623 0 0)
(0.131751 0 0)
(0.131629 0 0)
(0.131753 0 0)
(0.131636 0 0)
(0.131757 0 0)
(0.131644 0 0)
(0.131762 0 0)
(0.131654 0 0)
(0.131769 0 0)
(0.131665 0 0)
(0.131777 0 0)
(0.131679 0 0)
(0.131787 0 0)
(0.131694 0 0)
(0.131799 0 0)
(0.13171 0 0)
(0.131814 0 0)
(0.131726 0 0)
(0.131836 0 0)
(0.131738 0 0)
(0.13187 0 0)
(0.13174 0 0)
(0.131925 0 0)
(0.131727 0 0)
(0.132003 0 0)
(0.131708 0 0)
(0.132092 0 0)
(0.131722 0 0)
(0.132158 0 0)
(0.13182 0 0)
(0.132191 0 0)
(0.131993 0 0)
(0.132249 0 0)
(0.13217 0 0)
(0.132357 0 0)
(0.13232 0 0)
(0.132478 0 0)
(0.132444 0 0)
(0.132584 0 0)
(0.132543 0 0)
(0.132664 0 0)
(0.13262 0 0)
(0.132724 0 0)
(0.132679 0 0)
(0.132771 0 0)
(0.132727 0 0)
(0.13281 0 0)
(0.132771 0 0)
(0.132846 0 0)
(0.132814 0 0)
(0.132884 0 0)
(0.132857 0 0)
(0.132922 0 0)
(0.132902 0 0)
(0.132963 0 0)
(0.132949 0 0)
(0.133006 0 0)
(0.132997 0 0)
(0.133051 0 0)
(0.133047 0 0)
(0.133098 0 0)
(0.133099 0 0)
(0.133146 0 0)
(0.133152 0 0)
(0.133196 0 0)
(0.133206 0 0)
(0.133248 0 0)
(0.133261 0 0)
(0.1333 0 0)
(0.133317 0 0)
(0.133354 0 0)
(0.133374 0 0)
(0.133409 0 0)
(0.133431 0 0)
(0.133464 0 0)
(0.133489 0 0)
(0.13352 0 0)
(0.133546 0 0)
(0.133576 0 0)
(0.133604 0 0)
(0.133632 0 0)
(0.133661 0 0)
(0.133688 0 0)
(0.133718 0 0)
(0.133744 0 0)
(0.133774 0 0)
(0.133798 0 0)
(0.133829 0 0)
(0.133852 0 0)
(0.133883 0 0)
(0.133905 0 0)
(0.133936 0 0)
(0.133957 0 0)
(0.133987 0 0)
(0.134007 0 0)
(0.134036 0 0)
(0.134055 0 0)
(0.134084 0 0)
(0.134102 0 0)
(0.134129 0 0)
(0.134146 0 0)
(0.134173 0 0)
(0.134188 0 0)
(0.134213 0 0)
(0.134227 0 0)
(0.134252 0 0)
(0.134264 0 0)
(0.134287 0 0)
(0.134298 0 0)
(0.134319 0 0)
(0.13433 0 0)
(0.134349 0 0)
(0.134357 0 0)
(0.134375 0 0)
(0.134382 0 0)
(0.134398 0 0)
(0.134403 0 0)
(0.134418 0 0)
(0.13442 0 0)
(0.134434 0 0)
(0.134433 0 0)
(0.134448 0 0)
(0.134442 0 0)
(0.134457 0 0)
(0.134447 0 0)
(0.134461 0 0)
(0.134451 0 0)
(0.13446 0 0)
(0.134453 0 0)
(0.134458 0 0)
(0.134453 0 0)
(0.134459 0 0)
(0.134456 0 0)
(0.134463 0 0)
(0.134457 0 0)
(0.134447 0 0)
(0.134407 0 0)
(0.134349 0 0)
(0.134258 0 0)
(0.134162 0 0)
(0.134058 0 0)
(0.133973 0 0)
(0.133898 0 0)
(0.133847 0 0)
(0.133805 0 0)
(0.133779 0 0)
(0.133755 0 0)
(0.13374 0 0)
(0.133723 0 0)
(0.133712 0 0)
(0.133696 0 0)
(0.133685 0 0)
(0.133669 0 0)
(0.133657 0 0)
(0.13364 0 0)
(0.133626 0 0)
(0.133608 0 0)
(0.133592 0 0)
(0.133573 0 0)
(0.133556 0 0)
(0.133536 0 0)
(0.133518 0 0)
(0.133497 0 0)
(0.133477 0 0)
(0.133455 0 0)
(0.133434 0 0)
(0.133411 0 0)
(0.133389 0 0)
(0.133365 0 0)
(0.133343 0 0)
(0.133318 0 0)
(0.133295 0 0)
(0.133269 0 0)
(0.133245 0 0)
(0.133219 0 0)
(0.133194 0 0)
(0.133168 0 0)
(0.133143 0 0)
(0.133116 0 0)
(0.133091 0 0)
(0.133064 0 0)
(0.133038 0 0)
(0.133011 0 0)
(0.132984 0 0)
(0.132958 0 0)
(0.132931 0 0)
(0.132904 0 0)
(0.132878 0 0)
(0.132851 0 0)
(0.132824 0 0)
(0.132798 0 0)
(0.132772 0 0)
(0.132746 0 0)
(0.13272 0 0)
(0.132694 0 0)
(0.132668 0 0)
(0.132643 0 0)
(0.132618 0 0)
(0.132593 0 0)
(0.132568 0 0)
(0.132544 0 0)
(0.13252 0 0)
(0.132496 0 0)
(0.132473 0 0)
(0.13245 0 0)
(0.132427 0 0)
(0.132405 0 0)
(0.132383 0 0)
(0.132361 0 0)
(0.13234 0 0)
(0.132319 0 0)
(0.132299 0 0)
(0.132279 0 0)
(0.13226 0 0)
(0.132241 0 0)
(0.132222 0 0)
(0.132204 0 0)
(0.132186 0 0)
(0.132169 0 0)
(0.132152 0 0)
(0.132135 0 0)
(0.132119 0 0)
(0.132104 0 0)
(0.132089 0 0)
(0.132074 0 0)
(0.13206 0 0)
(0.132046 0 0)
(0.132033 0 0)
(0.13202 0 0)
(0.132007 0 0)
(0.131995 0 0)
(0.131983 0 0)
(0.131972 0 0)
(0.131961 0 0)
(0.131951 0 0)
(0.13194 0 0)
(0.131931 0 0)
(0.131921 0 0)
(0.131912 0 0)
(0.131903 0 0)
(0.131895 0 0)
(0.131887 0 0)
(0.131879 0 0)
(0.131872 0 0)
(0.131865 0 0)
(0.131858 0 0)
(0.131852 0 0)
(0.131845 0 0)
(0.13184 0 0)
(0.131834 0 0)
(0.131829 0 0)
(0.131823 0 0)
(0.131819 0 0)
(0.131814 0 0)
(0.131809 0 0)
(0.131805 0 0)
(0.131801 0 0)
(0.131797 0 0)
(0.131794 0 0)
(0.13179 0 0)
(0.131787 0 0)
(0.131784 0 0)
(0.131781 0 0)
(0.131778 0 0)
(0.131776 0 0)
(0.131773 0 0)
(0.131771 0 0)
(0.131769 0 0)
(0.131767 0 0)
(0.131765 0 0)
(0.131763 0 0)
(0.131761 0 0)
(0.13176 0 0)
(0.131758 0 0)
(0.131757 0 0)
(0.131756 0 0)
(0.131754 0 0)
(0.131753 0 0)
(0.131752 0 0)
(0.131751 0 0)
(0.13175 0 0)
(0.131749 0 0)
(0.131748 0 0)
(0.131748 0 0)
(0.131747 0 0)
(0.131746 0 0)
(0.131746 0 0)
(0.131745 0 0)
(0.131744 0 0)
(0.131744 0 0)
(0.131743 0 0)
(0.131743 0 0)
(0.131743 0 0)
(0.131742 0 0)
(0.131742 0 0)
(0.131742 0 0)
(0.131741 0 0)
(0.131741 0 0)
(0.131741 0 0)
(0.131741 0 0)
(0.13174 0 0)
(0.13174 0 0)
(0.13174 0 0)
(0.13174 0 0)
(0.13174 0 0)
(0.131739 0 0)
(0.131739 0 0)
(0.131739 0 0)
(0.131739 0 0)
(0.131739 0 0)
(0.131739 0 0)
(0.131739 0 0)
(0.131739 0 0)
(0.131739 0 0)
(0.131739 0 0)
(0.131739 0 0)
(0.131739 0 0)
(0.131738 0 0)
(0.131738 0 0)
(0.131738 0 0)
(0.131738 0 0)
(0.131738 0 0)
(0.131738 0 0)
(0.131738 0 0)
(0.131738 0 0)
(0.131738 0 0)
(0.131738 0 0)
(0.131738 0 0)
(0.131738 0 0)
(0.131738 0 0)
(0.131738 0 0)
(0.131738 0 0)
(0.131738 0 0)
(0.131738 0 0)
(0.131738 0 0)
(0.131738 0 0)
(0.131738 0 0)
(0.131738 0 0)
(0.131738 0 0)
(0.131738 0 0)
(0.131738 0 0)
(0.131738 0 0)
(0.131738 0 0)
(0.131738 0 0)
(0.131738 0 0)
(0.131738 0 0)
(0.131738 0 0)
(0.131738 0 0)
(0.131738 0 0)
(0.131738 0 0)
(0.131738 0 0)
(0.131738 0 0)
(0.131738 0 0)
(0.131738 0 0)
(0.131738 0 0)
(0.131738 0 0)
(0.131738 0 0)
(0.131738 0 0)
(0.131738 0 0)
(0.131738 0 0)
(0.131738 0 0)
(0.131738 0 0)
(0.131738 0 0)
(0.131738 0 0)
(0.131738 0 0)
(0.131738 0 0)
(0.131738 0 0)
(0.131738 0 0)
(0.131738 0 0)
(0.131738 0 0)
(0.131738 0 0)
(0.131738 0 0)
(0.131738 0 0)
(0.131738 0 0)
(0.131738 0 0)
(0.131738 0 0)
(0.131738 0 0)
(0.131738 0 0)
(0.131738 0 0)
(0.131738 0 0)
(0.131738 0 0)
(0.131738 0 0)
(0.131738 0 0)
(0.131738 0 0)
(0.131738 0 0)
(0.131738 0 0)
(0.131738 0 0)
(0.131738 0 0)
(0.131738 0 0)
(0.131738 0 0)
(0.131738 0 0)
(0.131738 0 0)
(0.131738 0 0)
(0.131738 0 0)
(0.131738 0 0)
(0.131738 0 0)
(0.131738 0 0)
(0.131738 0 0)
(0.131738 0 0)
(0.131738 0 0)
(0.131738 0 0)
(0.131738 0 0)
(0.131738 0 0)
(0.131738 0 0)
(0.131738 0 0)
(0.131738 0 0)
(0.131738 0 0)
(0.131738 0 0)
(0.131738 0 0)
(0.131738 0 0)
(0.131738 0 0)
(0.131738 0 0)
(0.131738 0 0)
(0.131738 0 0)
(0.131738 0 0)
(0.131738 0 0)
(0.131738 0 0)
(0.131738 0 0)
(0.131738 0 0)
(0.131738 0 0)
(0.131738 0 0)
(0.131738 0 0)
(0.131738 0 0)
(0.131738 0 0)
(0.131738 0 0)
(0.131738 0 0)
(0.131738 0 0)
(0.131738 0 0)
(0.131738 0 0)
(0.131738 0 0)
(0.131738 0 0)
(0.131738 0 0)
(0.131738 0 0)
(0.131738 0 0)
(0.131738 0 0)
(0.131738 0 0)
(0.131738 0 0)
(0.131738 0 0)
(0.131738 0 0)
(0.131738 0 0)
(0.131738 0 0)
(0.131738 0 0)
(0.131738 0 0)
(0.131738 0 0)
(0.131738 0 0)
(0.131738 0 0)
(0.131738 0 0)
(0.131738 0 0)
(0.131738 0 0)
(0.131738 0 0)
(0.131738 0 0)
(0.131738 0 0)
(0.131738 0 0)
(0.131738 0 0)
(0.131738 0 0)
(0.131738 0 0)
(0.131738 0 0)
(0.131738 0 0)
(0.131738 0 0)
(0.131738 0 0)
(0.131738 0 0)
(0.131738 0 0)
(0.131738 0 0)
(0.131738 0 0)
(0.131738 0 0)
(0.131738 0 0)
(0.131738 0 0)
(0.131738 0 0)
(0.131738 0 0)
(0.131738 0 0)
(0.131738 0 0)
(0.131738 0 0)
(0.131738 0 0)
(0.131738 0 0)
(0.131738 0 0)
(0.131738 0 0)
(0.131738 0 0)
(0.131738 0 0)
(0.131738 0 0)
(0.131738 0 0)
(0.131738 0 0)
(0.131738 0 0)
(0.131738 0 0)
(0.131738 0 0)
(0.131738 0 0)
(0.131738 0 0)
(0.131738 0 0)
(0.131738 0 0)
(0.131738 0 0)
(0.131738 0 0)
(0.131738 0 0)
(0.131738 0 0)
(0.131738 0 0)
(0.131738 0 0)
(0.131738 0 0)
(0.131738 0 0)
(0.131738 0 0)
(0.131738 0 0)
(0.131738 0 0)
(0.131738 0 0)
(0.131738 0 0)
(0.131738 0 0)
(0.131738 0 0)
(0.131738 0 0)
(0.131738 0 0)
(0.131738 0 0)
(0.131738 0 0)
(0.131738 0 0)
(0.131738 0 0)
(0.131738 0 0)
(0.131738 0 0)
(0.131738 0 0)
(0.131738 0 0)
(0.131738 0 0)
(0.131738 0 0)
(0.131738 0 0)
(0.131738 0 0)
(0.131738 0 0)
(0.131738 0 0)
(0.131738 0 0)
(0.131738 0 0)
(0.131738 0 0)
(0.131738 0 0)
(0.131738 0 0)
(0.131738 0 0)
(0.131738 0 0)
(0.131738 0 0)
(0.131738 0 0)
(0.131738 0 0)
(0.131738 0 0)
(0.131738 0 0)
(0.131738 0 0)
(0.131738 0 0)
(0.131738 0 0)
(0.131738 0 0)
(0.131738 0 0)
(0.131738 0 0)
(0.131738 0 0)
(0.131738 0 0)
(0.131738 0 0)
(0.131738 0 0)
(0.131738 0 0)
(0.131738 0 0)
(0.131738 0 0)
(0.131738 0 0)
(0.131738 0 0)
(0.131738 0 0)
(0.131738 0 0)
(0.131738 0 0)
(0.131738 0 0)
(0.131738 0 0)
(0.131738 0 0)
(0.131738 0 0)
(0.131738 0 0)
(0.131738 0 0)
(0.131738 0 0)
(0.131738 0 0)
(0.131738 0 0)
(0.131738 0 0)
(0.131738 0 0)
(0.131738 0 0)
(0.131738 0 0)
(0.131738 0 0)
(0.131738 0 0)
(0.131738 0 0)
(0.131738 0 0)
(0.131738 0 0)
(0.131738 0 0)
(0.131738 0 0)
(0.131738 0 0)
(0.131738 0 0)
(0.131738 0 0)
(0.131738 0 0)
(0.131738 0 0)
(0.131738 0 0)
(0.131738 0 0)
(0.131738 0 0)
(0.131738 0 0)
(0.131738 0 0)
(0.131738 0 0)
(0.131738 0 0)
(0.131738 0 0)
(0.131738 0 0)
(0.131738 0 0)
(0.131738 0 0)
(0.131738 0 0)
(0.131738 0 0)
(0.131738 0 0)
(0.131738 0 0)
(0.131738 0 0)
(0.131738 0 0)
(0.131738 0 0)
(0.131738 0 0)
(0.131738 0 0)
(0.131738 0 0)
(0.131738 0 0)
(0.131738 0 0)
(0.131738 0 0)
(0.131738 0 0)
(0.131738 0 0)
(0.131738 0 0)
(0.131738 0 0)
(0.131738 0 0)
(0.131738 0 0)
(0.131738 0 0)
(0.131738 0 0)
(0.131738 0 0)
(0.131738 0 0)
(0.131738 0 0)
(0.131738 0 0)
(0.131738 0 0)
(0.131738 0 0)
(0.131738 0 0)
(0.131738 0 0)
(0.131738 0 0)
(0.131738 0 0)
(0.131738 0 0)
(0.131738 0 0)
(0.131738 0 0)
(0.131738 0 0)
(0.131738 0 0)
(0.131738 0 0)
(0.131738 0 0)
(0.131738 0 0)
(0.131738 0 0)
(0.131738 0 0)
(0.131738 0 0)
(0.131738 0 0)
(0.131738 0 0)
(0.131738 0 0)
(0.131738 0 0)
(0.131738 0 0)
(0.131738 0 0)
(0.131738 0 0)
(0.131738 0 0)
(0.131738 0 0)
(0.131738 0 0)
(0.131738 0 0)
(0.131738 0 0)
(0.131738 0 0)
(0.131738 0 0)
(0.131738 0 0)
(0.131738 0 0)
(0.131738 0 0)
(0.131738 0 0)
(0.131738 0 0)
(0.131738 0 0)
(0.131738 0 0)
(0.131738 0 0)
(0.131738 0 0)
(0.131738 0 0)
(0.131738 0 0)
(0.131738 0 0)
(0.131738 0 0)
(0.131738 0 0)
(0.131738 0 0)
(0.131738 0 0)
(0.131738 0 0)
(0.131738 0 0)
(0.131738 0 0)
(0.131738 0 0)
(0.131738 0 0)
(0.131738 0 0)
(0.131738 0 0)
(0.131738 0 0)
(0.131738 0 0)
(0.131738 0 0)
(0.131738 0 0)
(0.131738 0 0)
(0.131738 0 0)
(0.131738 0 0)
(0.131738 0 0)
(0.131738 0 0)
(0.131738 0 0)
(0.131738 0 0)
(0.131738 0 0)
(0.131738 0 0)
(0.131738 0 0)
(0.131738 0 0)
(0.131738 0 0)
(0.131738 0 0)
(0.131738 0 0)
(0.131738 0 0)
(0.131738 0 0)
(0.131738 0 0)
(0.131738 0 0)
(0.131738 0 0)
(0.131738 0 0)
(0.131738 0 0)
(0.131738 0 0)
(0.131738 0 0)
(0.131738 0 0)
(0.131738 0 0)
(0.131738 0 0)
(0.131738 0 0)
(0.131738 0 0)
(0.131738 0 0)
(0.131738 0 0)
(0.131738 0 0)
(0.131738 0 0)
(0.131738 0 0)
(0.131738 0 0)
(0.131738 0 0)
(0.131738 0 0)
(0.131738 0 0)
(0.131738 0 0)
(0.131738 0 0)
(0.131738 0 0)
(0.131738 0 0)
(0.131738 0 0)
(0.131738 0 0)
(0.131738 0 0)
(0.131738 0 0)
(0.131738 0 0)
(0.131738 0 0)
(0.131738 0 0)
(0.131738 0 0)
(0.131738 0 0)
(0.131738 0 0)
(0.131738 0 0)
(0.131738 0 0)
(0.131738 0 0)
(0.131738 0 0)
(0.131738 0 0)
(0.131738 0 0)
(0.131738 0 0)
(0.131738 0 0)
(0.131738 0 0)
(0.131738 0 0)
(0.131738 0 0)
(0.131738 0 0)
(0.131738 0 0)
(0.131738 0 0)
(0.131738 0 0)
(0.131738 0 0)
(0.131738 0 0)
(0.131738 0 0)
(0.131738 0 0)
(0.131738 0 0)
(0.131738 0 0)
(0.131738 0 0)
(0.131738 0 0)
(0.131738 0 0)
(0.131738 0 0)
(0.131738 0 0)
(0.131738 0 0)
(0.131738 0 0)
(0.131738 0 0)
(0.131738 0 0)
(0.131738 0 0)
(0.131738 0 0)
(0.131738 0 0)
(0.131738 0 0)
(0.131738 0 0)
(0.131738 0 0)
(0.131738 0 0)
(0.131738 0 0)
(0.131738 0 0)
(0.131738 0 0)
(0.131738 0 0)
(0.131738 0 0)
(0.131738 0 0)
(0.131738 0 0)
(0.131738 0 0)
(0.131738 0 0)
(0.131738 0 0)
(0.131738 0 0)
(0.131738 0 0)
(0.131738 0 0)
(0.131738 0 0)
(0.131738 0 0)
(0.131738 0 0)
(0.131738 0 0)
(0.131738 0 0)
(0.131738 0 0)
(0.131738 0 0)
(0.131738 0 0)
(0.131738 0 0)
(0.131738 0 0)
(0.131738 0 0)
(0.131738 0 0)
(0.131738 0 0)
(0.131738 0 0)
(0.131738 0 0)
(0.131738 0 0)
(0.131738 0 0)
(0.131738 0 0)
(0.131738 0 0)
(0.131738 0 0)
(0.131738 0 0)
(0.131738 0 0)
(0.131738 0 0)
(0.131738 0 0)
(0.131738 0 0)
(0.131738 0 0)
(0.131738 0 0)
(0.131738 0 0)
(0.131738 0 0)
(0.131738 0 0)
(0.131738 0 0)
(0.131738 0 0)
(0.131738 0 0)
(0.131738 0 0)
(0.131738 0 0)
(0.131738 0 0)
(0.131738 0 0)
(0.131738 0 0)
(0.131738 0 0)
(0.131738 0 0)
(0.131738 0 0)
(0.131738 0 0)
(0.131738 0 0)
(0.131738 0 0)
(0.131738 0 0)
(0.131738 0 0)
(0.131738 0 0)
(0.131738 0 0)
(0.131738 0 0)
(0.131738 0 0)
(0.131738 0 0)
(0.131738 0 0)
(0.131738 0 0)
(0.131738 0 0)
(0.131738 0 0)
(0.131738 0 0)
(0.131738 0 0)
(0.131738 0 0)
(0.131738 0 0)
(0.131738 0 0)
(0.131738 0 0)
(0.131738 0 0)
(0.131738 0 0)
(0.131738 0 0)
(0.131738 0 0)
(0.131738 0 0)
(0.131738 0 0)
(0.131738 0 0)
(0.131738 0 0)
(0.131738 0 0)
(0.131738 0 0)
(0.131738 0 0)
(0.131738 0 0)
(0.131738 0 0)
(0.131738 0 0)
(0.131738 0 0)
(0.131738 0 0)
(0.131738 0 0)
(0.131738 0 0)
(0.131738 0 0)
(0.131738 0 0)
(0.131738 0 0)
(0.131738 0 0)
(0.131738 0 0)
(0.131738 0 0)
(0.131738 0 0)
(0.131738 0 0)
(0.131738 0 0)
(0.131738 0 0)
(0.131738 0 0)
(0.131738 0 0)
(0.131738 0 0)
(0.131738 0 0)
(0.131738 0 0)
(0.131738 0 0)
(0.131738 0 0)
(0.131738 0 0)
(0.131738 0 0)
(0.131737 0 0)
(0.131739 0 0)
(0.131737 0 0)
(0.131739 0 0)
(0.131737 0 0)
(0.131739 0 0)
(0.131737 0 0)
(0.131739 0 0)
(0.131737 0 0)
(0.131739 0 0)
(0.131737 0 0)
(0.131739 0 0)
(0.131737 0 0)
(0.131739 0 0)
(0.131736 0 0)
(0.13174 0 0)
(0.131736 0 0)
(0.13174 0 0)
(0.131736 0 0)
(0.13174 0 0)
(0.131736 0 0)
(0.13174 0 0)
(0.131735 0 0)
(0.131741 0 0)
(0.131735 0 0)
(0.131741 0 0)
(0.131734 0 0)
(0.131741 0 0)
(0.131734 0 0)
(0.131742 0 0)
(0.131733 0 0)
(0.131742 0 0)
(0.131733 0 0)
(0.131743 0 0)
(0.131732 0 0)
(0.131743 0 0)
(0.131731 0 0)
(0.131744 0 0)
(0.13173 0 0)
(0.131745 0 0)
(0.13173 0 0)
(0.131745 0 0)
(0.131728 0 0)
(0.131746 0 0)
(0.131727 0 0)
(0.131747 0 0)
(0.131726 0 0)
(0.131748 0 0)
(0.131725 0 0)
(0.131749 0 0)
(0.131723 0 0)
(0.13175 0 0)
(0.131722 0 0)
(0.13175 0 0)
(0.13172 0 0)
(0.131752 0 0)
(0.131718 0 0)
(0.131753 0 0)
(0.131716 0 0)
(0.131754 0 0)
(0.131714 0 0)
(0.131755 0 0)
(0.131712 0 0)
(0.131756 0 0)
(0.13171 0 0)
)
;

boundaryField
{
    topWall
    {
        type            empty;
    }
    bottomWall
    {
        type            empty;
    }
    leftAndRight_half1
    {
        type            cyclic;
    }
    leftAndRight_half0
    {
        type            cyclic;
    }
    frontAndBack
    {
        type            empty;
    }
}


// ************************************************************************* //
