/*--------------------------------*- C++ -*----------------------------------*\
  =========                 |
  \\      /  F ield         | OpenFOAM: The Open Source CFD Toolbox
   \\    /   O peration     | Website:  https://openfoam.org
    \\  /    A nd           | Version:  9
     \\/     M anipulation  |
\*---------------------------------------------------------------------------*/
FoamFile
{
    format      ascii;
    class       volVectorField;
    location    "3.75";
    object      U;
}
// * * * * * * * * * * * * * * * * * * * * * * * * * * * * * * * * * * * * * //

dimensions      [0 1 -1 0 0 0 0];

internalField   nonuniform List<vector> 
1000
(
(0.131767 0 0)
(0.131693 0 0)
(0.131767 0 0)
(0.131691 0 0)
(0.131768 0 0)
(0.13169 0 0)
(0.131768 0 0)
(0.131688 0 0)
(0.131769 0 0)
(0.131687 0 0)
(0.131769 0 0)
(0.131685 0 0)
(0.13177 0 0)
(0.131684 0 0)
(0.13177 0 0)
(0.131682 0 0)
(0.13177 0 0)
(0.131681 0 0)
(0.131771 0 0)
(0.13168 0 0)
(0.131771 0 0)
(0.131679 0 0)
(0.131771 0 0)
(0.131678 0 0)
(0.131772 0 0)
(0.131678 0 0)
(0.131772 0 0)
(0.131677 0 0)
(0.131772 0 0)
(0.131677 0 0)
(0.131773 0 0)
(0.131677 0 0)
(0.131773 0 0)
(0.131677 0 0)
(0.131774 0 0)
(0.131677 0 0)
(0.131774 0 0)
(0.131678 0 0)
(0.131775 0 0)
(0.131679 0 0)
(0.131776 0 0)
(0.131681 0 0)
(0.131777 0 0)
(0.131682 0 0)
(0.131779 0 0)
(0.131685 0 0)
(0.131781 0 0)
(0.131687 0 0)
(0.131783 0 0)
(0.131691 0 0)
(0.131785 0 0)
(0.131694 0 0)
(0.131788 0 0)
(0.131699 0 0)
(0.131791 0 0)
(0.131703 0 0)
(0.131794 0 0)
(0.131709 0 0)
(0.131799 0 0)
(0.131715 0 0)
(0.131803 0 0)
(0.131722 0 0)
(0.131809 0 0)
(0.13173 0 0)
(0.131815 0 0)
(0.131739 0 0)
(0.131822 0 0)
(0.131748 0 0)
(0.131829 0 0)
(0.131759 0 0)
(0.131838 0 0)
(0.131771 0 0)
(0.131848 0 0)
(0.131783 0 0)
(0.131858 0 0)
(0.131797 0 0)
(0.13187 0 0)
(0.131812 0 0)
(0.131883 0 0)
(0.131828 0 0)
(0.131897 0 0)
(0.131846 0 0)
(0.131913 0 0)
(0.131863 0 0)
(0.131932 0 0)
(0.13188 0 0)
(0.131957 0 0)
(0.131892 0 0)
(0.131993 0 0)
(0.131893 0 0)
(0.132048 0 0)
(0.131878 0 0)
(0.132127 0 0)
(0.131856 0 0)
(0.132215 0 0)
(0.131866 0 0)
(0.132279 0 0)
(0.131959 0 0)
(0.132309 0 0)
(0.132126 0 0)
(0.132364 0 0)
(0.132295 0 0)
(0.132466 0 0)
(0.132436 0 0)
(0.132581 0 0)
(0.132551 0 0)
(0.132678 0 0)
(0.132639 0 0)
(0.13275 0 0)
(0.132704 0 0)
(0.1328 0 0)
(0.13275 0 0)
(0.132834 0 0)
(0.132784 0 0)
(0.13286 0 0)
(0.132812 0 0)
(0.132883 0 0)
(0.132839 0 0)
(0.132905 0 0)
(0.132865 0 0)
(0.132927 0 0)
(0.132891 0 0)
(0.13295 0 0)
(0.132919 0 0)
(0.132975 0 0)
(0.132947 0 0)
(0.133 0 0)
(0.132976 0 0)
(0.133027 0 0)
(0.133006 0 0)
(0.133054 0 0)
(0.133037 0 0)
(0.133083 0 0)
(0.133069 0 0)
(0.133112 0 0)
(0.133101 0 0)
(0.133142 0 0)
(0.133134 0 0)
(0.133173 0 0)
(0.133168 0 0)
(0.133205 0 0)
(0.133202 0 0)
(0.133237 0 0)
(0.133237 0 0)
(0.13327 0 0)
(0.133272 0 0)
(0.133303 0 0)
(0.133307 0 0)
(0.133337 0 0)
(0.133342 0 0)
(0.133371 0 0)
(0.133378 0 0)
(0.133405 0 0)
(0.133413 0 0)
(0.133439 0 0)
(0.133448 0 0)
(0.133473 0 0)
(0.133483 0 0)
(0.133507 0 0)
(0.133518 0 0)
(0.133541 0 0)
(0.133553 0 0)
(0.133574 0 0)
(0.133586 0 0)
(0.133607 0 0)
(0.133619 0 0)
(0.133639 0 0)
(0.133652 0 0)
(0.13367 0 0)
(0.133683 0 0)
(0.1337 0 0)
(0.133713 0 0)
(0.133729 0 0)
(0.133742 0 0)
(0.133757 0 0)
(0.13377 0 0)
(0.133784 0 0)
(0.133797 0 0)
(0.13381 0 0)
(0.133822 0 0)
(0.133833 0 0)
(0.133845 0 0)
(0.133856 0 0)
(0.133867 0 0)
(0.133876 0 0)
(0.133887 0 0)
(0.133893 0 0)
(0.133906 0 0)
(0.133909 0 0)
(0.133923 0 0)
(0.133922 0 0)
(0.133937 0 0)
(0.133934 0 0)
(0.133948 0 0)
(0.133945 0 0)
(0.133957 0 0)
(0.133956 0 0)
(0.133965 0 0)
(0.133967 0 0)
(0.133977 0 0)
(0.133983 0 0)
(0.133995 0 0)
(0.133997 0 0)
(0.133994 0 0)
(0.133963 0 0)
(0.133912 0 0)
(0.13383 0 0)
(0.133742 0 0)
(0.133649 0 0)
(0.133573 0 0)
(0.133509 0 0)
(0.133468 0 0)
(0.133437 0 0)
(0.133421 0 0)
(0.133409 0 0)
(0.133405 0 0)
(0.133401 0 0)
(0.133401 0 0)
(0.133398 0 0)
(0.133399 0 0)
(0.133397 0 0)
(0.133397 0 0)
(0.133394 0 0)
(0.133393 0 0)
(0.133389 0 0)
(0.133387 0 0)
(0.133382 0 0)
(0.133379 0 0)
(0.133373 0 0)
(0.133369 0 0)
(0.133362 0 0)
(0.133357 0 0)
(0.133349 0 0)
(0.133343 0 0)
(0.133335 0 0)
(0.133328 0 0)
(0.133319 0 0)
(0.133311 0 0)
(0.1333 0 0)
(0.133292 0 0)
(0.133281 0 0)
(0.133271 0 0)
(0.133259 0 0)
(0.133249 0 0)
(0.133237 0 0)
(0.133225 0 0)
(0.133212 0 0)
(0.1332 0 0)
(0.133187 0 0)
(0.133174 0 0)
(0.13316 0 0)
(0.133146 0 0)
(0.133132 0 0)
(0.133118 0 0)
(0.133102 0 0)
(0.133088 0 0)
(0.133072 0 0)
(0.133057 0 0)
(0.133041 0 0)
(0.133026 0 0)
(0.133009 0 0)
(0.132993 0 0)
(0.132977 0 0)
(0.13296 0 0)
(0.132943 0 0)
(0.132927 0 0)
(0.13291 0 0)
(0.132893 0 0)
(0.132875 0 0)
(0.132858 0 0)
(0.132841 0 0)
(0.132824 0 0)
(0.132806 0 0)
(0.132789 0 0)
(0.132771 0 0)
(0.132753 0 0)
(0.132736 0 0)
(0.132718 0 0)
(0.132701 0 0)
(0.132683 0 0)
(0.132666 0 0)
(0.132648 0 0)
(0.132631 0 0)
(0.132614 0 0)
(0.132596 0 0)
(0.132579 0 0)
(0.132562 0 0)
(0.132545 0 0)
(0.132528 0 0)
(0.132511 0 0)
(0.132495 0 0)
(0.132478 0 0)
(0.132462 0 0)
(0.132446 0 0)
(0.132429 0 0)
(0.132413 0 0)
(0.132398 0 0)
(0.132382 0 0)
(0.132367 0 0)
(0.132351 0 0)
(0.132336 0 0)
(0.132321 0 0)
(0.132307 0 0)
(0.132292 0 0)
(0.132278 0 0)
(0.132264 0 0)
(0.13225 0 0)
(0.132236 0 0)
(0.132222 0 0)
(0.132209 0 0)
(0.132196 0 0)
(0.132183 0 0)
(0.132171 0 0)
(0.132158 0 0)
(0.132146 0 0)
(0.132134 0 0)
(0.132122 0 0)
(0.132111 0 0)
(0.1321 0 0)
(0.132088 0 0)
(0.132078 0 0)
(0.132067 0 0)
(0.132057 0 0)
(0.132047 0 0)
(0.132037 0 0)
(0.132027 0 0)
(0.132017 0 0)
(0.132008 0 0)
(0.131999 0 0)
(0.13199 0 0)
(0.131982 0 0)
(0.131973 0 0)
(0.131965 0 0)
(0.131957 0 0)
(0.13195 0 0)
(0.131942 0 0)
(0.131935 0 0)
(0.131928 0 0)
(0.131921 0 0)
(0.131914 0 0)
(0.131907 0 0)
(0.131901 0 0)
(0.131895 0 0)
(0.131889 0 0)
(0.131883 0 0)
(0.131877 0 0)
(0.131872 0 0)
(0.131867 0 0)
(0.131861 0 0)
(0.131857 0 0)
(0.131852 0 0)
(0.131847 0 0)
(0.131843 0 0)
(0.131838 0 0)
(0.131834 0 0)
(0.13183 0 0)
(0.131826 0 0)
(0.131822 0 0)
(0.131819 0 0)
(0.131815 0 0)
(0.131812 0 0)
(0.131809 0 0)
(0.131805 0 0)
(0.131802 0 0)
(0.1318 0 0)
(0.131797 0 0)
(0.131794 0 0)
(0.131791 0 0)
(0.131789 0 0)
(0.131787 0 0)
(0.131784 0 0)
(0.131782 0 0)
(0.13178 0 0)
(0.131778 0 0)
(0.131776 0 0)
(0.131774 0 0)
(0.131772 0 0)
(0.131771 0 0)
(0.131769 0 0)
(0.131768 0 0)
(0.131766 0 0)
(0.131765 0 0)
(0.131763 0 0)
(0.131762 0 0)
(0.131761 0 0)
(0.13176 0 0)
(0.131758 0 0)
(0.131757 0 0)
(0.131756 0 0)
(0.131755 0 0)
(0.131754 0 0)
(0.131754 0 0)
(0.131753 0 0)
(0.131752 0 0)
(0.131751 0 0)
(0.13175 0 0)
(0.13175 0 0)
(0.131749 0 0)
(0.131748 0 0)
(0.131748 0 0)
(0.131747 0 0)
(0.131747 0 0)
(0.131746 0 0)
(0.131746 0 0)
(0.131745 0 0)
(0.131745 0 0)
(0.131744 0 0)
(0.131744 0 0)
(0.131744 0 0)
(0.131743 0 0)
(0.131743 0 0)
(0.131743 0 0)
(0.131742 0 0)
(0.131742 0 0)
(0.131742 0 0)
(0.131742 0 0)
(0.131741 0 0)
(0.131741 0 0)
(0.131741 0 0)
(0.131741 0 0)
(0.131741 0 0)
(0.13174 0 0)
(0.13174 0 0)
(0.13174 0 0)
(0.13174 0 0)
(0.13174 0 0)
(0.13174 0 0)
(0.13174 0 0)
(0.13174 0 0)
(0.131739 0 0)
(0.131739 0 0)
(0.131739 0 0)
(0.131739 0 0)
(0.131739 0 0)
(0.131739 0 0)
(0.131739 0 0)
(0.131739 0 0)
(0.131739 0 0)
(0.131739 0 0)
(0.131739 0 0)
(0.131739 0 0)
(0.131739 0 0)
(0.131739 0 0)
(0.131739 0 0)
(0.131738 0 0)
(0.131738 0 0)
(0.131738 0 0)
(0.131738 0 0)
(0.131738 0 0)
(0.131738 0 0)
(0.131738 0 0)
(0.131738 0 0)
(0.131738 0 0)
(0.131738 0 0)
(0.131738 0 0)
(0.131738 0 0)
(0.131738 0 0)
(0.131738 0 0)
(0.131738 0 0)
(0.131738 0 0)
(0.131738 0 0)
(0.131738 0 0)
(0.131738 0 0)
(0.131738 0 0)
(0.131738 0 0)
(0.131738 0 0)
(0.131738 0 0)
(0.131738 0 0)
(0.131738 0 0)
(0.131738 0 0)
(0.131738 0 0)
(0.131738 0 0)
(0.131738 0 0)
(0.131738 0 0)
(0.131738 0 0)
(0.131738 0 0)
(0.131738 0 0)
(0.131738 0 0)
(0.131738 0 0)
(0.131738 0 0)
(0.131738 0 0)
(0.131738 0 0)
(0.131738 0 0)
(0.131738 0 0)
(0.131738 0 0)
(0.131738 0 0)
(0.131738 0 0)
(0.131738 0 0)
(0.131738 0 0)
(0.131738 0 0)
(0.131738 0 0)
(0.131738 0 0)
(0.131738 0 0)
(0.131738 0 0)
(0.131738 0 0)
(0.131738 0 0)
(0.131738 0 0)
(0.131738 0 0)
(0.131738 0 0)
(0.131738 0 0)
(0.131738 0 0)
(0.131738 0 0)
(0.131738 0 0)
(0.131738 0 0)
(0.131738 0 0)
(0.131738 0 0)
(0.131738 0 0)
(0.131738 0 0)
(0.131738 0 0)
(0.131738 0 0)
(0.131738 0 0)
(0.131738 0 0)
(0.131738 0 0)
(0.131738 0 0)
(0.131738 0 0)
(0.131738 0 0)
(0.131738 0 0)
(0.131738 0 0)
(0.131738 0 0)
(0.131738 0 0)
(0.131738 0 0)
(0.131738 0 0)
(0.131738 0 0)
(0.131738 0 0)
(0.131738 0 0)
(0.131738 0 0)
(0.131738 0 0)
(0.131738 0 0)
(0.131738 0 0)
(0.131738 0 0)
(0.131738 0 0)
(0.131738 0 0)
(0.131738 0 0)
(0.131738 0 0)
(0.131738 0 0)
(0.131738 0 0)
(0.131738 0 0)
(0.131738 0 0)
(0.131738 0 0)
(0.131738 0 0)
(0.131738 0 0)
(0.131738 0 0)
(0.131738 0 0)
(0.131738 0 0)
(0.131738 0 0)
(0.131738 0 0)
(0.131738 0 0)
(0.131738 0 0)
(0.131738 0 0)
(0.131738 0 0)
(0.131738 0 0)
(0.131738 0 0)
(0.131738 0 0)
(0.131738 0 0)
(0.131738 0 0)
(0.131738 0 0)
(0.131738 0 0)
(0.131738 0 0)
(0.131738 0 0)
(0.131738 0 0)
(0.131738 0 0)
(0.131738 0 0)
(0.131738 0 0)
(0.131738 0 0)
(0.131738 0 0)
(0.131738 0 0)
(0.131738 0 0)
(0.131738 0 0)
(0.131738 0 0)
(0.131738 0 0)
(0.131738 0 0)
(0.131738 0 0)
(0.131738 0 0)
(0.131738 0 0)
(0.131738 0 0)
(0.131738 0 0)
(0.131738 0 0)
(0.131738 0 0)
(0.131738 0 0)
(0.131738 0 0)
(0.131738 0 0)
(0.131738 0 0)
(0.131738 0 0)
(0.131738 0 0)
(0.131738 0 0)
(0.131738 0 0)
(0.131738 0 0)
(0.131738 0 0)
(0.131738 0 0)
(0.131738 0 0)
(0.131738 0 0)
(0.131738 0 0)
(0.131738 0 0)
(0.131738 0 0)
(0.131738 0 0)
(0.131738 0 0)
(0.131738 0 0)
(0.131738 0 0)
(0.131738 0 0)
(0.131738 0 0)
(0.131738 0 0)
(0.131738 0 0)
(0.131738 0 0)
(0.131738 0 0)
(0.131738 0 0)
(0.131738 0 0)
(0.131738 0 0)
(0.131738 0 0)
(0.131738 0 0)
(0.131738 0 0)
(0.131738 0 0)
(0.131738 0 0)
(0.131738 0 0)
(0.131738 0 0)
(0.131738 0 0)
(0.131738 0 0)
(0.131738 0 0)
(0.131738 0 0)
(0.131738 0 0)
(0.131738 0 0)
(0.131738 0 0)
(0.131738 0 0)
(0.131738 0 0)
(0.131738 0 0)
(0.131738 0 0)
(0.131738 0 0)
(0.131738 0 0)
(0.131738 0 0)
(0.131738 0 0)
(0.131738 0 0)
(0.131738 0 0)
(0.131738 0 0)
(0.131738 0 0)
(0.131738 0 0)
(0.131738 0 0)
(0.131738 0 0)
(0.131738 0 0)
(0.131738 0 0)
(0.131738 0 0)
(0.131738 0 0)
(0.131738 0 0)
(0.131738 0 0)
(0.131738 0 0)
(0.131738 0 0)
(0.131738 0 0)
(0.131738 0 0)
(0.131738 0 0)
(0.131738 0 0)
(0.131738 0 0)
(0.131738 0 0)
(0.131738 0 0)
(0.131738 0 0)
(0.131738 0 0)
(0.131738 0 0)
(0.131738 0 0)
(0.131738 0 0)
(0.131738 0 0)
(0.131738 0 0)
(0.131738 0 0)
(0.131738 0 0)
(0.131738 0 0)
(0.131738 0 0)
(0.131738 0 0)
(0.131738 0 0)
(0.131738 0 0)
(0.131738 0 0)
(0.131738 0 0)
(0.131738 0 0)
(0.131738 0 0)
(0.131738 0 0)
(0.131738 0 0)
(0.131738 0 0)
(0.131738 0 0)
(0.131738 0 0)
(0.131738 0 0)
(0.131738 0 0)
(0.131738 0 0)
(0.131738 0 0)
(0.131738 0 0)
(0.131738 0 0)
(0.131738 0 0)
(0.131738 0 0)
(0.131738 0 0)
(0.131738 0 0)
(0.131738 0 0)
(0.131738 0 0)
(0.131738 0 0)
(0.131738 0 0)
(0.131738 0 0)
(0.131738 0 0)
(0.131738 0 0)
(0.131738 0 0)
(0.131738 0 0)
(0.131738 0 0)
(0.131738 0 0)
(0.131738 0 0)
(0.131738 0 0)
(0.131738 0 0)
(0.131738 0 0)
(0.131738 0 0)
(0.131738 0 0)
(0.131738 0 0)
(0.131738 0 0)
(0.131738 0 0)
(0.131738 0 0)
(0.131738 0 0)
(0.131738 0 0)
(0.131738 0 0)
(0.131738 0 0)
(0.131738 0 0)
(0.131738 0 0)
(0.131738 0 0)
(0.131738 0 0)
(0.131738 0 0)
(0.131738 0 0)
(0.131738 0 0)
(0.131738 0 0)
(0.131738 0 0)
(0.131738 0 0)
(0.131738 0 0)
(0.131738 0 0)
(0.131738 0 0)
(0.131738 0 0)
(0.131738 0 0)
(0.131738 0 0)
(0.131738 0 0)
(0.131738 0 0)
(0.131738 0 0)
(0.131738 0 0)
(0.131738 0 0)
(0.131738 0 0)
(0.131738 0 0)
(0.131738 0 0)
(0.131738 0 0)
(0.131738 0 0)
(0.131738 0 0)
(0.131738 0 0)
(0.131738 0 0)
(0.131738 0 0)
(0.131738 0 0)
(0.131738 0 0)
(0.131738 0 0)
(0.131738 0 0)
(0.131738 0 0)
(0.131738 0 0)
(0.131738 0 0)
(0.131738 0 0)
(0.131738 0 0)
(0.131738 0 0)
(0.131738 0 0)
(0.131738 0 0)
(0.131738 0 0)
(0.131738 0 0)
(0.131738 0 0)
(0.131738 0 0)
(0.131738 0 0)
(0.131738 0 0)
(0.131738 0 0)
(0.131738 0 0)
(0.131738 0 0)
(0.131738 0 0)
(0.131738 0 0)
(0.131738 0 0)
(0.131738 0 0)
(0.131738 0 0)
(0.131738 0 0)
(0.131738 0 0)
(0.131738 0 0)
(0.131738 0 0)
(0.131738 0 0)
(0.131738 0 0)
(0.131738 0 0)
(0.131738 0 0)
(0.131738 0 0)
(0.131738 0 0)
(0.131738 0 0)
(0.131738 0 0)
(0.131738 0 0)
(0.131738 0 0)
(0.131738 0 0)
(0.131738 0 0)
(0.131738 0 0)
(0.131738 0 0)
(0.131738 0 0)
(0.131738 0 0)
(0.131738 0 0)
(0.131738 0 0)
(0.131738 0 0)
(0.131738 0 0)
(0.131738 0 0)
(0.131738 0 0)
(0.131738 0 0)
(0.131738 0 0)
(0.131738 0 0)
(0.131738 0 0)
(0.131738 0 0)
(0.131738 0 0)
(0.131738 0 0)
(0.131738 0 0)
(0.131738 0 0)
(0.131738 0 0)
(0.131738 0 0)
(0.131738 0 0)
(0.131738 0 0)
(0.131738 0 0)
(0.131738 0 0)
(0.131738 0 0)
(0.131738 0 0)
(0.131738 0 0)
(0.131738 0 0)
(0.131738 0 0)
(0.131738 0 0)
(0.131738 0 0)
(0.131738 0 0)
(0.131738 0 0)
(0.131738 0 0)
(0.131738 0 0)
(0.131738 0 0)
(0.131738 0 0)
(0.131738 0 0)
(0.131738 0 0)
(0.131738 0 0)
(0.131738 0 0)
(0.131738 0 0)
(0.131738 0 0)
(0.131738 0 0)
(0.131738 0 0)
(0.131738 0 0)
(0.131738 0 0)
(0.131738 0 0)
(0.131738 0 0)
(0.131738 0 0)
(0.131738 0 0)
(0.131738 0 0)
(0.131738 0 0)
(0.131738 0 0)
(0.131738 0 0)
(0.131738 0 0)
(0.131738 0 0)
(0.131738 0 0)
(0.131738 0 0)
(0.131738 0 0)
(0.131738 0 0)
(0.131738 0 0)
(0.131738 0 0)
(0.131738 0 0)
(0.131738 0 0)
(0.131738 0 0)
(0.131738 0 0)
(0.131738 0 0)
(0.131738 0 0)
(0.131738 0 0)
(0.131738 0 0)
(0.131738 0 0)
(0.131738 0 0)
(0.131738 0 0)
(0.131738 0 0)
(0.131738 0 0)
(0.131738 0 0)
(0.131738 0 0)
(0.131738 0 0)
(0.131738 0 0)
(0.131738 0 0)
(0.131738 0 0)
(0.131738 0 0)
(0.131738 0 0)
(0.131738 0 0)
(0.131738 0 0)
(0.131738 0 0)
(0.131738 0 0)
(0.131738 0 0)
(0.131738 0 0)
(0.131738 0 0)
(0.131738 0 0)
(0.131738 0 0)
(0.131738 0 0)
(0.131738 0 0)
(0.131738 0 0)
(0.131738 0 0)
(0.131738 0 0)
(0.131738 0 0)
(0.131738 0 0)
(0.131738 0 0)
(0.131738 0 0)
(0.131738 0 0)
(0.131738 0 0)
(0.131739 0 0)
(0.131737 0 0)
(0.131739 0 0)
(0.131737 0 0)
(0.131739 0 0)
(0.131737 0 0)
(0.131739 0 0)
(0.131737 0 0)
(0.131739 0 0)
(0.131737 0 0)
(0.131739 0 0)
(0.131737 0 0)
(0.131739 0 0)
(0.131737 0 0)
(0.131739 0 0)
(0.131737 0 0)
(0.131739 0 0)
(0.131737 0 0)
(0.131739 0 0)
(0.131736 0 0)
(0.13174 0 0)
(0.131736 0 0)
(0.13174 0 0)
(0.131736 0 0)
(0.13174 0 0)
(0.131736 0 0)
(0.13174 0 0)
(0.131736 0 0)
(0.13174 0 0)
(0.131735 0 0)
(0.131741 0 0)
(0.131735 0 0)
(0.131741 0 0)
(0.131735 0 0)
(0.131741 0 0)
(0.131735 0 0)
(0.131741 0 0)
(0.131734 0 0)
(0.131742 0 0)
(0.131734 0 0)
(0.131742 0 0)
(0.131734 0 0)
(0.131742 0 0)
(0.131733 0 0)
(0.131743 0 0)
(0.131733 0 0)
(0.131743 0 0)
(0.131732 0 0)
(0.131743 0 0)
(0.131732 0 0)
(0.131744 0 0)
(0.131731 0 0)
(0.131744 0 0)
(0.131731 0 0)
(0.131745 0 0)
(0.13173 0 0)
(0.131745 0 0)
(0.131729 0 0)
(0.131746 0 0)
(0.131729 0 0)
(0.131747 0 0)
(0.131728 0 0)
(0.131747 0 0)
(0.131727 0 0)
(0.131748 0 0)
(0.131726 0 0)
(0.131748 0 0)
(0.131726 0 0)
(0.131749 0 0)
(0.131725 0 0)
(0.13175 0 0)
(0.131724 0 0)
(0.131751 0 0)
(0.131723 0 0)
(0.131751 0 0)
(0.131722 0 0)
(0.131752 0 0)
(0.131721 0 0)
(0.131753 0 0)
(0.131719 0 0)
(0.131754 0 0)
(0.131718 0 0)
(0.131754 0 0)
(0.131717 0 0)
(0.131755 0 0)
(0.131716 0 0)
(0.131756 0 0)
(0.131714 0 0)
(0.131757 0 0)
(0.131713 0 0)
(0.131758 0 0)
(0.131712 0 0)
(0.131759 0 0)
(0.13171 0 0)
(0.131759 0 0)
(0.131709 0 0)
(0.13176 0 0)
(0.131707 0 0)
(0.131761 0 0)
(0.131706 0 0)
(0.131762 0 0)
(0.131704 0 0)
(0.131763 0 0)
(0.131703 0 0)
(0.131763 0 0)
(0.131701 0 0)
(0.131764 0 0)
(0.131699 0 0)
(0.131765 0 0)
(0.131698 0 0)
(0.131766 0 0)
(0.131696 0 0)
(0.131766 0 0)
(0.131694 0 0)
)
;

boundaryField
{
    topWall
    {
        type            empty;
    }
    bottomWall
    {
        type            empty;
    }
    leftAndRight_half1
    {
        type            cyclic;
    }
    leftAndRight_half0
    {
        type            cyclic;
    }
    frontAndBack
    {
        type            empty;
    }
}


// ************************************************************************* //
