/*--------------------------------*- C++ -*----------------------------------*\
  =========                 |
  \\      /  F ield         | OpenFOAM: The Open Source CFD Toolbox
   \\    /   O peration     | Website:  https://openfoam.org
    \\  /    A nd           | Version:  9
     \\/     M anipulation  |
\*---------------------------------------------------------------------------*/
FoamFile
{
    format      ascii;
    class       volVectorField;
    location    "2.8";
    object      U;
}
// * * * * * * * * * * * * * * * * * * * * * * * * * * * * * * * * * * * * * //

dimensions      [0 1 -1 0 0 0 0];

internalField   nonuniform List<vector> 
1000
(
(0.131762 0 0)
(0.131698 0 0)
(0.131763 0 0)
(0.131696 0 0)
(0.131764 0 0)
(0.131693 0 0)
(0.131765 0 0)
(0.13169 0 0)
(0.131765 0 0)
(0.131688 0 0)
(0.131766 0 0)
(0.131685 0 0)
(0.131766 0 0)
(0.131682 0 0)
(0.131767 0 0)
(0.13168 0 0)
(0.131767 0 0)
(0.131677 0 0)
(0.131768 0 0)
(0.131674 0 0)
(0.131768 0 0)
(0.131671 0 0)
(0.131768 0 0)
(0.131669 0 0)
(0.131768 0 0)
(0.131666 0 0)
(0.131768 0 0)
(0.131663 0 0)
(0.131768 0 0)
(0.131661 0 0)
(0.131767 0 0)
(0.131659 0 0)
(0.131767 0 0)
(0.131656 0 0)
(0.131767 0 0)
(0.131654 0 0)
(0.131766 0 0)
(0.131653 0 0)
(0.131766 0 0)
(0.131651 0 0)
(0.131765 0 0)
(0.13165 0 0)
(0.131765 0 0)
(0.131649 0 0)
(0.131765 0 0)
(0.131648 0 0)
(0.131765 0 0)
(0.131648 0 0)
(0.131764 0 0)
(0.131648 0 0)
(0.131765 0 0)
(0.131649 0 0)
(0.131765 0 0)
(0.131651 0 0)
(0.131766 0 0)
(0.131653 0 0)
(0.131767 0 0)
(0.131655 0 0)
(0.131769 0 0)
(0.131659 0 0)
(0.131771 0 0)
(0.131663 0 0)
(0.131773 0 0)
(0.131668 0 0)
(0.131777 0 0)
(0.131674 0 0)
(0.131781 0 0)
(0.131682 0 0)
(0.131786 0 0)
(0.13169 0 0)
(0.131792 0 0)
(0.1317 0 0)
(0.131799 0 0)
(0.131711 0 0)
(0.131807 0 0)
(0.131723 0 0)
(0.131817 0 0)
(0.131737 0 0)
(0.131828 0 0)
(0.131752 0 0)
(0.13184 0 0)
(0.131768 0 0)
(0.131855 0 0)
(0.131786 0 0)
(0.131872 0 0)
(0.131803 0 0)
(0.131896 0 0)
(0.131815 0 0)
(0.131932 0 0)
(0.131817 0 0)
(0.131987 0 0)
(0.131803 0 0)
(0.132066 0 0)
(0.131783 0 0)
(0.132155 0 0)
(0.131795 0 0)
(0.13222 0 0)
(0.131891 0 0)
(0.132252 0 0)
(0.132061 0 0)
(0.132309 0 0)
(0.132234 0 0)
(0.132414 0 0)
(0.13238 0 0)
(0.132532 0 0)
(0.1325 0 0)
(0.132634 0 0)
(0.132594 0 0)
(0.13271 0 0)
(0.132664 0 0)
(0.132765 0 0)
(0.132716 0 0)
(0.132805 0 0)
(0.132758 0 0)
(0.132838 0 0)
(0.132794 0 0)
(0.132868 0 0)
(0.132829 0 0)
(0.132897 0 0)
(0.132863 0 0)
(0.132928 0 0)
(0.132899 0 0)
(0.13296 0 0)
(0.132936 0 0)
(0.132994 0 0)
(0.132975 0 0)
(0.133029 0 0)
(0.133014 0 0)
(0.133065 0 0)
(0.133055 0 0)
(0.133103 0 0)
(0.133097 0 0)
(0.133143 0 0)
(0.133141 0 0)
(0.133184 0 0)
(0.133185 0 0)
(0.133225 0 0)
(0.133229 0 0)
(0.133268 0 0)
(0.133275 0 0)
(0.133312 0 0)
(0.133321 0 0)
(0.133356 0 0)
(0.133368 0 0)
(0.133401 0 0)
(0.133415 0 0)
(0.133446 0 0)
(0.133462 0 0)
(0.133492 0 0)
(0.133509 0 0)
(0.133538 0 0)
(0.133556 0 0)
(0.133583 0 0)
(0.133603 0 0)
(0.133629 0 0)
(0.133649 0 0)
(0.133674 0 0)
(0.133695 0 0)
(0.133718 0 0)
(0.13374 0 0)
(0.133762 0 0)
(0.133784 0 0)
(0.133805 0 0)
(0.133827 0 0)
(0.133847 0 0)
(0.133869 0 0)
(0.133888 0 0)
(0.133909 0 0)
(0.133927 0 0)
(0.133948 0 0)
(0.133964 0 0)
(0.133985 0 0)
(0.134 0 0)
(0.13402 0 0)
(0.134034 0 0)
(0.134053 0 0)
(0.134066 0 0)
(0.134084 0 0)
(0.134096 0 0)
(0.134113 0 0)
(0.134123 0 0)
(0.134139 0 0)
(0.134148 0 0)
(0.134162 0 0)
(0.134169 0 0)
(0.134184 0 0)
(0.134188 0 0)
(0.134202 0 0)
(0.134203 0 0)
(0.134219 0 0)
(0.134215 0 0)
(0.134231 0 0)
(0.134225 0 0)
(0.13424 0 0)
(0.134233 0 0)
(0.134245 0 0)
(0.13424 0 0)
(0.134248 0 0)
(0.134247 0 0)
(0.134256 0 0)
(0.134257 0 0)
(0.134267 0 0)
(0.134265 0 0)
(0.134259 0 0)
(0.134223 0 0)
(0.134169 0 0)
(0.134083 0 0)
(0.133991 0 0)
(0.133892 0 0)
(0.133812 0 0)
(0.133742 0 0)
(0.133696 0 0)
(0.133659 0 0)
(0.133639 0 0)
(0.13362 0 0)
(0.133611 0 0)
(0.1336 0 0)
(0.133595 0 0)
(0.133585 0 0)
(0.13358 0 0)
(0.133571 0 0)
(0.133564 0 0)
(0.133554 0 0)
(0.133546 0 0)
(0.133535 0 0)
(0.133526 0 0)
(0.133513 0 0)
(0.133503 0 0)
(0.13349 0 0)
(0.133478 0 0)
(0.133464 0 0)
(0.133451 0 0)
(0.133435 0 0)
(0.133422 0 0)
(0.133405 0 0)
(0.13339 0 0)
(0.133373 0 0)
(0.133357 0 0)
(0.133339 0 0)
(0.133322 0 0)
(0.133304 0 0)
(0.133286 0 0)
(0.133267 0 0)
(0.133248 0 0)
(0.133228 0 0)
(0.133209 0 0)
(0.133189 0 0)
(0.133169 0 0)
(0.133148 0 0)
(0.133127 0 0)
(0.133106 0 0)
(0.133085 0 0)
(0.133064 0 0)
(0.133042 0 0)
(0.13302 0 0)
(0.132999 0 0)
(0.132977 0 0)
(0.132955 0 0)
(0.132933 0 0)
(0.132911 0 0)
(0.132888 0 0)
(0.132866 0 0)
(0.132844 0 0)
(0.132822 0 0)
(0.132799 0 0)
(0.132777 0 0)
(0.132755 0 0)
(0.132733 0 0)
(0.132711 0 0)
(0.132689 0 0)
(0.132668 0 0)
(0.132646 0 0)
(0.132624 0 0)
(0.132603 0 0)
(0.132582 0 0)
(0.132561 0 0)
(0.13254 0 0)
(0.13252 0 0)
(0.132499 0 0)
(0.132479 0 0)
(0.132459 0 0)
(0.13244 0 0)
(0.13242 0 0)
(0.132401 0 0)
(0.132382 0 0)
(0.132364 0 0)
(0.132345 0 0)
(0.132327 0 0)
(0.13231 0 0)
(0.132292 0 0)
(0.132275 0 0)
(0.132258 0 0)
(0.132242 0 0)
(0.132226 0 0)
(0.13221 0 0)
(0.132194 0 0)
(0.132179 0 0)
(0.132164 0 0)
(0.132149 0 0)
(0.132135 0 0)
(0.132121 0 0)
(0.132108 0 0)
(0.132094 0 0)
(0.132081 0 0)
(0.132069 0 0)
(0.132056 0 0)
(0.132045 0 0)
(0.132033 0 0)
(0.132022 0 0)
(0.132011 0 0)
(0.132 0 0)
(0.131989 0 0)
(0.131979 0 0)
(0.13197 0 0)
(0.13196 0 0)
(0.131951 0 0)
(0.131942 0 0)
(0.131933 0 0)
(0.131925 0 0)
(0.131917 0 0)
(0.131909 0 0)
(0.131902 0 0)
(0.131894 0 0)
(0.131887 0 0)
(0.131881 0 0)
(0.131874 0 0)
(0.131868 0 0)
(0.131862 0 0)
(0.131856 0 0)
(0.13185 0 0)
(0.131845 0 0)
(0.13184 0 0)
(0.131835 0 0)
(0.13183 0 0)
(0.131825 0 0)
(0.131821 0 0)
(0.131817 0 0)
(0.131813 0 0)
(0.131809 0 0)
(0.131805 0 0)
(0.131802 0 0)
(0.131798 0 0)
(0.131795 0 0)
(0.131792 0 0)
(0.131789 0 0)
(0.131786 0 0)
(0.131784 0 0)
(0.131781 0 0)
(0.131779 0 0)
(0.131777 0 0)
(0.131774 0 0)
(0.131772 0 0)
(0.13177 0 0)
(0.131768 0 0)
(0.131767 0 0)
(0.131765 0 0)
(0.131763 0 0)
(0.131762 0 0)
(0.13176 0 0)
(0.131759 0 0)
(0.131758 0 0)
(0.131757 0 0)
(0.131755 0 0)
(0.131754 0 0)
(0.131753 0 0)
(0.131752 0 0)
(0.131751 0 0)
(0.131751 0 0)
(0.13175 0 0)
(0.131749 0 0)
(0.131748 0 0)
(0.131748 0 0)
(0.131747 0 0)
(0.131746 0 0)
(0.131746 0 0)
(0.131745 0 0)
(0.131745 0 0)
(0.131744 0 0)
(0.131744 0 0)
(0.131743 0 0)
(0.131743 0 0)
(0.131743 0 0)
(0.131742 0 0)
(0.131742 0 0)
(0.131742 0 0)
(0.131741 0 0)
(0.131741 0 0)
(0.131741 0 0)
(0.131741 0 0)
(0.131741 0 0)
(0.13174 0 0)
(0.13174 0 0)
(0.13174 0 0)
(0.13174 0 0)
(0.13174 0 0)
(0.13174 0 0)
(0.131739 0 0)
(0.131739 0 0)
(0.131739 0 0)
(0.131739 0 0)
(0.131739 0 0)
(0.131739 0 0)
(0.131739 0 0)
(0.131739 0 0)
(0.131739 0 0)
(0.131739 0 0)
(0.131739 0 0)
(0.131739 0 0)
(0.131739 0 0)
(0.131738 0 0)
(0.131738 0 0)
(0.131738 0 0)
(0.131738 0 0)
(0.131738 0 0)
(0.131738 0 0)
(0.131738 0 0)
(0.131738 0 0)
(0.131738 0 0)
(0.131738 0 0)
(0.131738 0 0)
(0.131738 0 0)
(0.131738 0 0)
(0.131738 0 0)
(0.131738 0 0)
(0.131738 0 0)
(0.131738 0 0)
(0.131738 0 0)
(0.131738 0 0)
(0.131738 0 0)
(0.131738 0 0)
(0.131738 0 0)
(0.131738 0 0)
(0.131738 0 0)
(0.131738 0 0)
(0.131738 0 0)
(0.131738 0 0)
(0.131738 0 0)
(0.131738 0 0)
(0.131738 0 0)
(0.131738 0 0)
(0.131738 0 0)
(0.131738 0 0)
(0.131738 0 0)
(0.131738 0 0)
(0.131738 0 0)
(0.131738 0 0)
(0.131738 0 0)
(0.131738 0 0)
(0.131738 0 0)
(0.131738 0 0)
(0.131738 0 0)
(0.131738 0 0)
(0.131738 0 0)
(0.131738 0 0)
(0.131738 0 0)
(0.131738 0 0)
(0.131738 0 0)
(0.131738 0 0)
(0.131738 0 0)
(0.131738 0 0)
(0.131738 0 0)
(0.131738 0 0)
(0.131738 0 0)
(0.131738 0 0)
(0.131738 0 0)
(0.131738 0 0)
(0.131738 0 0)
(0.131738 0 0)
(0.131738 0 0)
(0.131738 0 0)
(0.131738 0 0)
(0.131738 0 0)
(0.131738 0 0)
(0.131738 0 0)
(0.131738 0 0)
(0.131738 0 0)
(0.131738 0 0)
(0.131738 0 0)
(0.131738 0 0)
(0.131738 0 0)
(0.131738 0 0)
(0.131738 0 0)
(0.131738 0 0)
(0.131738 0 0)
(0.131738 0 0)
(0.131738 0 0)
(0.131738 0 0)
(0.131738 0 0)
(0.131738 0 0)
(0.131738 0 0)
(0.131738 0 0)
(0.131738 0 0)
(0.131738 0 0)
(0.131738 0 0)
(0.131738 0 0)
(0.131738 0 0)
(0.131738 0 0)
(0.131738 0 0)
(0.131738 0 0)
(0.131738 0 0)
(0.131738 0 0)
(0.131738 0 0)
(0.131738 0 0)
(0.131738 0 0)
(0.131738 0 0)
(0.131738 0 0)
(0.131738 0 0)
(0.131738 0 0)
(0.131738 0 0)
(0.131738 0 0)
(0.131738 0 0)
(0.131738 0 0)
(0.131738 0 0)
(0.131738 0 0)
(0.131738 0 0)
(0.131738 0 0)
(0.131738 0 0)
(0.131738 0 0)
(0.131738 0 0)
(0.131738 0 0)
(0.131738 0 0)
(0.131738 0 0)
(0.131738 0 0)
(0.131738 0 0)
(0.131738 0 0)
(0.131738 0 0)
(0.131738 0 0)
(0.131738 0 0)
(0.131738 0 0)
(0.131738 0 0)
(0.131738 0 0)
(0.131738 0 0)
(0.131738 0 0)
(0.131738 0 0)
(0.131738 0 0)
(0.131738 0 0)
(0.131738 0 0)
(0.131738 0 0)
(0.131738 0 0)
(0.131738 0 0)
(0.131738 0 0)
(0.131738 0 0)
(0.131738 0 0)
(0.131738 0 0)
(0.131738 0 0)
(0.131738 0 0)
(0.131738 0 0)
(0.131738 0 0)
(0.131738 0 0)
(0.131738 0 0)
(0.131738 0 0)
(0.131738 0 0)
(0.131738 0 0)
(0.131738 0 0)
(0.131738 0 0)
(0.131738 0 0)
(0.131738 0 0)
(0.131738 0 0)
(0.131738 0 0)
(0.131738 0 0)
(0.131738 0 0)
(0.131738 0 0)
(0.131738 0 0)
(0.131738 0 0)
(0.131738 0 0)
(0.131738 0 0)
(0.131738 0 0)
(0.131738 0 0)
(0.131738 0 0)
(0.131738 0 0)
(0.131738 0 0)
(0.131738 0 0)
(0.131738 0 0)
(0.131738 0 0)
(0.131738 0 0)
(0.131738 0 0)
(0.131738 0 0)
(0.131738 0 0)
(0.131738 0 0)
(0.131738 0 0)
(0.131738 0 0)
(0.131738 0 0)
(0.131738 0 0)
(0.131738 0 0)
(0.131738 0 0)
(0.131738 0 0)
(0.131738 0 0)
(0.131738 0 0)
(0.131738 0 0)
(0.131738 0 0)
(0.131738 0 0)
(0.131738 0 0)
(0.131738 0 0)
(0.131738 0 0)
(0.131738 0 0)
(0.131738 0 0)
(0.131738 0 0)
(0.131738 0 0)
(0.131738 0 0)
(0.131738 0 0)
(0.131738 0 0)
(0.131738 0 0)
(0.131738 0 0)
(0.131738 0 0)
(0.131738 0 0)
(0.131738 0 0)
(0.131738 0 0)
(0.131738 0 0)
(0.131738 0 0)
(0.131738 0 0)
(0.131738 0 0)
(0.131738 0 0)
(0.131738 0 0)
(0.131738 0 0)
(0.131738 0 0)
(0.131738 0 0)
(0.131738 0 0)
(0.131738 0 0)
(0.131738 0 0)
(0.131738 0 0)
(0.131738 0 0)
(0.131738 0 0)
(0.131738 0 0)
(0.131738 0 0)
(0.131738 0 0)
(0.131738 0 0)
(0.131738 0 0)
(0.131738 0 0)
(0.131738 0 0)
(0.131738 0 0)
(0.131738 0 0)
(0.131738 0 0)
(0.131738 0 0)
(0.131738 0 0)
(0.131738 0 0)
(0.131738 0 0)
(0.131738 0 0)
(0.131738 0 0)
(0.131738 0 0)
(0.131738 0 0)
(0.131738 0 0)
(0.131738 0 0)
(0.131738 0 0)
(0.131738 0 0)
(0.131738 0 0)
(0.131738 0 0)
(0.131738 0 0)
(0.131738 0 0)
(0.131738 0 0)
(0.131738 0 0)
(0.131738 0 0)
(0.131738 0 0)
(0.131738 0 0)
(0.131738 0 0)
(0.131738 0 0)
(0.131738 0 0)
(0.131738 0 0)
(0.131738 0 0)
(0.131738 0 0)
(0.131738 0 0)
(0.131738 0 0)
(0.131738 0 0)
(0.131738 0 0)
(0.131738 0 0)
(0.131738 0 0)
(0.131738 0 0)
(0.131738 0 0)
(0.131738 0 0)
(0.131738 0 0)
(0.131738 0 0)
(0.131738 0 0)
(0.131738 0 0)
(0.131738 0 0)
(0.131738 0 0)
(0.131738 0 0)
(0.131738 0 0)
(0.131738 0 0)
(0.131738 0 0)
(0.131738 0 0)
(0.131738 0 0)
(0.131738 0 0)
(0.131738 0 0)
(0.131738 0 0)
(0.131738 0 0)
(0.131738 0 0)
(0.131738 0 0)
(0.131738 0 0)
(0.131738 0 0)
(0.131738 0 0)
(0.131738 0 0)
(0.131738 0 0)
(0.131738 0 0)
(0.131738 0 0)
(0.131738 0 0)
(0.131738 0 0)
(0.131738 0 0)
(0.131738 0 0)
(0.131738 0 0)
(0.131738 0 0)
(0.131738 0 0)
(0.131738 0 0)
(0.131738 0 0)
(0.131738 0 0)
(0.131738 0 0)
(0.131738 0 0)
(0.131738 0 0)
(0.131738 0 0)
(0.131738 0 0)
(0.131738 0 0)
(0.131738 0 0)
(0.131738 0 0)
(0.131738 0 0)
(0.131738 0 0)
(0.131738 0 0)
(0.131738 0 0)
(0.131738 0 0)
(0.131738 0 0)
(0.131738 0 0)
(0.131738 0 0)
(0.131738 0 0)
(0.131738 0 0)
(0.131738 0 0)
(0.131738 0 0)
(0.131738 0 0)
(0.131738 0 0)
(0.131738 0 0)
(0.131738 0 0)
(0.131738 0 0)
(0.131738 0 0)
(0.131738 0 0)
(0.131738 0 0)
(0.131738 0 0)
(0.131738 0 0)
(0.131738 0 0)
(0.131738 0 0)
(0.131738 0 0)
(0.131738 0 0)
(0.131738 0 0)
(0.131738 0 0)
(0.131738 0 0)
(0.131738 0 0)
(0.131738 0 0)
(0.131738 0 0)
(0.131738 0 0)
(0.131738 0 0)
(0.131738 0 0)
(0.131738 0 0)
(0.131738 0 0)
(0.131738 0 0)
(0.131738 0 0)
(0.131738 0 0)
(0.131738 0 0)
(0.131738 0 0)
(0.131738 0 0)
(0.131738 0 0)
(0.131738 0 0)
(0.131738 0 0)
(0.131738 0 0)
(0.131738 0 0)
(0.131738 0 0)
(0.131738 0 0)
(0.131738 0 0)
(0.131738 0 0)
(0.131738 0 0)
(0.131738 0 0)
(0.131738 0 0)
(0.131738 0 0)
(0.131738 0 0)
(0.131738 0 0)
(0.131738 0 0)
(0.131738 0 0)
(0.131738 0 0)
(0.131738 0 0)
(0.131738 0 0)
(0.131738 0 0)
(0.131738 0 0)
(0.131738 0 0)
(0.131738 0 0)
(0.131738 0 0)
(0.131738 0 0)
(0.131738 0 0)
(0.131738 0 0)
(0.131738 0 0)
(0.131738 0 0)
(0.131738 0 0)
(0.131738 0 0)
(0.131738 0 0)
(0.131738 0 0)
(0.131738 0 0)
(0.131738 0 0)
(0.131738 0 0)
(0.131738 0 0)
(0.131738 0 0)
(0.131738 0 0)
(0.131738 0 0)
(0.131738 0 0)
(0.131738 0 0)
(0.131738 0 0)
(0.131738 0 0)
(0.131738 0 0)
(0.131738 0 0)
(0.131738 0 0)
(0.131738 0 0)
(0.131738 0 0)
(0.131738 0 0)
(0.131738 0 0)
(0.131738 0 0)
(0.131738 0 0)
(0.131738 0 0)
(0.131738 0 0)
(0.131738 0 0)
(0.131738 0 0)
(0.131738 0 0)
(0.131738 0 0)
(0.131738 0 0)
(0.131738 0 0)
(0.131738 0 0)
(0.131738 0 0)
(0.131738 0 0)
(0.131738 0 0)
(0.131738 0 0)
(0.131738 0 0)
(0.131738 0 0)
(0.131738 0 0)
(0.131738 0 0)
(0.131738 0 0)
(0.131738 0 0)
(0.131738 0 0)
(0.131738 0 0)
(0.131738 0 0)
(0.131738 0 0)
(0.131738 0 0)
(0.131738 0 0)
(0.131738 0 0)
(0.131738 0 0)
(0.131738 0 0)
(0.131738 0 0)
(0.131738 0 0)
(0.131738 0 0)
(0.131738 0 0)
(0.131738 0 0)
(0.131738 0 0)
(0.131738 0 0)
(0.131738 0 0)
(0.131738 0 0)
(0.131738 0 0)
(0.131738 0 0)
(0.131738 0 0)
(0.131738 0 0)
(0.131738 0 0)
(0.131738 0 0)
(0.131738 0 0)
(0.131738 0 0)
(0.131738 0 0)
(0.131738 0 0)
(0.131738 0 0)
(0.131738 0 0)
(0.131738 0 0)
(0.131738 0 0)
(0.131738 0 0)
(0.131738 0 0)
(0.131738 0 0)
(0.131738 0 0)
(0.131738 0 0)
(0.131738 0 0)
(0.131738 0 0)
(0.131738 0 0)
(0.131738 0 0)
(0.131738 0 0)
(0.131738 0 0)
(0.131738 0 0)
(0.131738 0 0)
(0.131738 0 0)
(0.131738 0 0)
(0.131738 0 0)
(0.131738 0 0)
(0.131738 0 0)
(0.131738 0 0)
(0.131738 0 0)
(0.131738 0 0)
(0.131738 0 0)
(0.131738 0 0)
(0.131738 0 0)
(0.131738 0 0)
(0.131738 0 0)
(0.131738 0 0)
(0.131738 0 0)
(0.131738 0 0)
(0.131738 0 0)
(0.131738 0 0)
(0.131738 0 0)
(0.131738 0 0)
(0.131738 0 0)
(0.131738 0 0)
(0.131738 0 0)
(0.131738 0 0)
(0.131738 0 0)
(0.131738 0 0)
(0.131738 0 0)
(0.131738 0 0)
(0.131738 0 0)
(0.131738 0 0)
(0.131738 0 0)
(0.131738 0 0)
(0.131738 0 0)
(0.131738 0 0)
(0.131738 0 0)
(0.131738 0 0)
(0.131738 0 0)
(0.131738 0 0)
(0.131738 0 0)
(0.131738 0 0)
(0.131738 0 0)
(0.131738 0 0)
(0.131738 0 0)
(0.131737 0 0)
(0.131739 0 0)
(0.131737 0 0)
(0.131739 0 0)
(0.131737 0 0)
(0.131739 0 0)
(0.131737 0 0)
(0.131739 0 0)
(0.131737 0 0)
(0.131739 0 0)
(0.131737 0 0)
(0.131739 0 0)
(0.131737 0 0)
(0.131739 0 0)
(0.131737 0 0)
(0.131739 0 0)
(0.131736 0 0)
(0.13174 0 0)
(0.131736 0 0)
(0.13174 0 0)
(0.131736 0 0)
(0.13174 0 0)
(0.131736 0 0)
(0.13174 0 0)
(0.131735 0 0)
(0.13174 0 0)
(0.131735 0 0)
(0.131741 0 0)
(0.131735 0 0)
(0.131741 0 0)
(0.131734 0 0)
(0.131741 0 0)
(0.131734 0 0)
(0.131742 0 0)
(0.131734 0 0)
(0.131742 0 0)
(0.131733 0 0)
(0.131743 0 0)
(0.131732 0 0)
(0.131743 0 0)
(0.131732 0 0)
(0.131744 0 0)
(0.131731 0 0)
(0.131744 0 0)
(0.13173 0 0)
(0.131745 0 0)
(0.13173 0 0)
(0.131745 0 0)
(0.131729 0 0)
(0.131746 0 0)
(0.131728 0 0)
(0.131747 0 0)
(0.131727 0 0)
(0.131747 0 0)
(0.131726 0 0)
(0.131748 0 0)
(0.131725 0 0)
(0.131749 0 0)
(0.131724 0 0)
(0.13175 0 0)
(0.131722 0 0)
(0.131751 0 0)
(0.131721 0 0)
(0.131752 0 0)
(0.13172 0 0)
(0.131753 0 0)
(0.131718 0 0)
(0.131753 0 0)
(0.131716 0 0)
(0.131754 0 0)
(0.131715 0 0)
(0.131755 0 0)
(0.131713 0 0)
(0.131756 0 0)
(0.131711 0 0)
(0.131757 0 0)
(0.131709 0 0)
(0.131758 0 0)
(0.131707 0 0)
(0.131759 0 0)
(0.131705 0 0)
(0.13176 0 0)
(0.131703 0 0)
(0.131761 0 0)
(0.1317 0 0)
)
;

boundaryField
{
    topWall
    {
        type            empty;
    }
    bottomWall
    {
        type            empty;
    }
    leftAndRight_half1
    {
        type            cyclic;
    }
    leftAndRight_half0
    {
        type            cyclic;
    }
    frontAndBack
    {
        type            empty;
    }
}


// ************************************************************************* //
