/*--------------------------------*- C++ -*----------------------------------*\
  =========                 |
  \\      /  F ield         | OpenFOAM: The Open Source CFD Toolbox
   \\    /   O peration     | Website:  https://openfoam.org
    \\  /    A nd           | Version:  9
     \\/     M anipulation  |
\*---------------------------------------------------------------------------*/
FoamFile
{
    format      ascii;
    class       volVectorField;
    location    "1.4";
    object      U;
}
// * * * * * * * * * * * * * * * * * * * * * * * * * * * * * * * * * * * * * //

dimensions      [0 1 -1 0 0 0 0];

internalField   nonuniform List<vector> 
1000
(
(0.131746 0 0)
(0.131726 0 0)
(0.131747 0 0)
(0.131724 0 0)
(0.131748 0 0)
(0.131722 0 0)
(0.13175 0 0)
(0.13172 0 0)
(0.131751 0 0)
(0.131717 0 0)
(0.131752 0 0)
(0.131714 0 0)
(0.131754 0 0)
(0.131711 0 0)
(0.131755 0 0)
(0.131707 0 0)
(0.131757 0 0)
(0.131703 0 0)
(0.131758 0 0)
(0.131699 0 0)
(0.13176 0 0)
(0.131694 0 0)
(0.131761 0 0)
(0.131689 0 0)
(0.131762 0 0)
(0.131684 0 0)
(0.131764 0 0)
(0.131678 0 0)
(0.131765 0 0)
(0.131672 0 0)
(0.131765 0 0)
(0.131665 0 0)
(0.131766 0 0)
(0.131658 0 0)
(0.131766 0 0)
(0.13165 0 0)
(0.131766 0 0)
(0.131642 0 0)
(0.131765 0 0)
(0.131634 0 0)
(0.131764 0 0)
(0.131625 0 0)
(0.131762 0 0)
(0.131617 0 0)
(0.13176 0 0)
(0.131607 0 0)
(0.131757 0 0)
(0.131598 0 0)
(0.131754 0 0)
(0.131589 0 0)
(0.13175 0 0)
(0.131579 0 0)
(0.131746 0 0)
(0.13157 0 0)
(0.131741 0 0)
(0.131561 0 0)
(0.131735 0 0)
(0.131552 0 0)
(0.131729 0 0)
(0.131544 0 0)
(0.131723 0 0)
(0.131536 0 0)
(0.131716 0 0)
(0.131529 0 0)
(0.13171 0 0)
(0.131523 0 0)
(0.131703 0 0)
(0.131518 0 0)
(0.131697 0 0)
(0.131514 0 0)
(0.131691 0 0)
(0.131512 0 0)
(0.131686 0 0)
(0.131512 0 0)
(0.131682 0 0)
(0.131513 0 0)
(0.131679 0 0)
(0.131517 0 0)
(0.131678 0 0)
(0.131524 0 0)
(0.131679 0 0)
(0.131533 0 0)
(0.131682 0 0)
(0.131543 0 0)
(0.13169 0 0)
(0.131555 0 0)
(0.131705 0 0)
(0.131564 0 0)
(0.131732 0 0)
(0.131564 0 0)
(0.131782 0 0)
(0.131551 0 0)
(0.131856 0 0)
(0.131532 0 0)
(0.131943 0 0)
(0.131549 0 0)
(0.132008 0 0)
(0.131651 0 0)
(0.132042 0 0)
(0.13183 0 0)
(0.132103 0 0)
(0.132015 0 0)
(0.132215 0 0)
(0.132174 0 0)
(0.132343 0 0)
(0.132309 0 0)
(0.132456 0 0)
(0.132422 0 0)
(0.132548 0 0)
(0.132513 0 0)
(0.13262 0 0)
(0.132588 0 0)
(0.13268 0 0)
(0.132654 0 0)
(0.132736 0 0)
(0.132717 0 0)
(0.13279 0 0)
(0.13278 0 0)
(0.132846 0 0)
(0.132845 0 0)
(0.132906 0 0)
(0.132913 0 0)
(0.132968 0 0)
(0.132982 0 0)
(0.133034 0 0)
(0.133054 0 0)
(0.133102 0 0)
(0.133128 0 0)
(0.133172 0 0)
(0.133204 0 0)
(0.133245 0 0)
(0.133281 0 0)
(0.133319 0 0)
(0.133359 0 0)
(0.133395 0 0)
(0.133437 0 0)
(0.133471 0 0)
(0.133516 0 0)
(0.133547 0 0)
(0.133594 0 0)
(0.133624 0 0)
(0.133672 0 0)
(0.1337 0 0)
(0.133749 0 0)
(0.133776 0 0)
(0.133825 0 0)
(0.13385 0 0)
(0.133899 0 0)
(0.133923 0 0)
(0.133972 0 0)
(0.133995 0 0)
(0.134042 0 0)
(0.134064 0 0)
(0.134111 0 0)
(0.134132 0 0)
(0.134177 0 0)
(0.134197 0 0)
(0.13424 0 0)
(0.134259 0 0)
(0.134301 0 0)
(0.134319 0 0)
(0.134358 0 0)
(0.134375 0 0)
(0.134413 0 0)
(0.134429 0 0)
(0.134464 0 0)
(0.134479 0 0)
(0.134512 0 0)
(0.134526 0 0)
(0.134557 0 0)
(0.134569 0 0)
(0.134598 0 0)
(0.134609 0 0)
(0.134636 0 0)
(0.134645 0 0)
(0.13467 0 0)
(0.134678 0 0)
(0.1347 0 0)
(0.134706 0 0)
(0.134726 0 0)
(0.134731 0 0)
(0.134748 0 0)
(0.134751 0 0)
(0.134766 0 0)
(0.134767 0 0)
(0.13478 0 0)
(0.134778 0 0)
(0.13479 0 0)
(0.134785 0 0)
(0.134797 0 0)
(0.134786 0 0)
(0.134798 0 0)
(0.134784 0 0)
(0.134793 0 0)
(0.134778 0 0)
(0.134783 0 0)
(0.13477 0 0)
(0.13477 0 0)
(0.134759 0 0)
(0.134759 0 0)
(0.134751 0 0)
(0.134751 0 0)
(0.134738 0 0)
(0.134721 0 0)
(0.134674 0 0)
(0.134608 0 0)
(0.134509 0 0)
(0.134404 0 0)
(0.134292 0 0)
(0.134198 0 0)
(0.134115 0 0)
(0.134054 0 0)
(0.134002 0 0)
(0.133965 0 0)
(0.133932 0 0)
(0.133905 0 0)
(0.133878 0 0)
(0.133855 0 0)
(0.133829 0 0)
(0.133805 0 0)
(0.133778 0 0)
(0.133752 0 0)
(0.133724 0 0)
(0.133696 0 0)
(0.133667 0 0)
(0.133637 0 0)
(0.133606 0 0)
(0.133575 0 0)
(0.133542 0 0)
(0.13351 0 0)
(0.133476 0 0)
(0.133442 0 0)
(0.133408 0 0)
(0.133373 0 0)
(0.133337 0 0)
(0.133302 0 0)
(0.133266 0 0)
(0.133229 0 0)
(0.133193 0 0)
(0.133156 0 0)
(0.133119 0 0)
(0.133082 0 0)
(0.133045 0 0)
(0.133008 0 0)
(0.132972 0 0)
(0.132935 0 0)
(0.132899 0 0)
(0.132862 0 0)
(0.132826 0 0)
(0.13279 0 0)
(0.132755 0 0)
(0.13272 0 0)
(0.132686 0 0)
(0.132652 0 0)
(0.132618 0 0)
(0.132585 0 0)
(0.132553 0 0)
(0.132521 0 0)
(0.132489 0 0)
(0.132459 0 0)
(0.132429 0 0)
(0.132399 0 0)
(0.132371 0 0)
(0.132343 0 0)
(0.132316 0 0)
(0.132289 0 0)
(0.132264 0 0)
(0.132239 0 0)
(0.132215 0 0)
(0.132191 0 0)
(0.132169 0 0)
(0.132147 0 0)
(0.132126 0 0)
(0.132106 0 0)
(0.132086 0 0)
(0.132067 0 0)
(0.132049 0 0)
(0.132032 0 0)
(0.132015 0 0)
(0.131999 0 0)
(0.131984 0 0)
(0.131969 0 0)
(0.131955 0 0)
(0.131942 0 0)
(0.131929 0 0)
(0.131917 0 0)
(0.131906 0 0)
(0.131895 0 0)
(0.131885 0 0)
(0.131875 0 0)
(0.131866 0 0)
(0.131857 0 0)
(0.131849 0 0)
(0.131841 0 0)
(0.131834 0 0)
(0.131827 0 0)
(0.131821 0 0)
(0.131815 0 0)
(0.131809 0 0)
(0.131804 0 0)
(0.131799 0 0)
(0.131794 0 0)
(0.13179 0 0)
(0.131785 0 0)
(0.131782 0 0)
(0.131778 0 0)
(0.131775 0 0)
(0.131772 0 0)
(0.131769 0 0)
(0.131766 0 0)
(0.131764 0 0)
(0.131762 0 0)
(0.13176 0 0)
(0.131758 0 0)
(0.131756 0 0)
(0.131754 0 0)
(0.131753 0 0)
(0.131752 0 0)
(0.13175 0 0)
(0.131749 0 0)
(0.131748 0 0)
(0.131747 0 0)
(0.131746 0 0)
(0.131745 0 0)
(0.131745 0 0)
(0.131744 0 0)
(0.131743 0 0)
(0.131743 0 0)
(0.131742 0 0)
(0.131742 0 0)
(0.131742 0 0)
(0.131741 0 0)
(0.131741 0 0)
(0.131741 0 0)
(0.13174 0 0)
(0.13174 0 0)
(0.13174 0 0)
(0.13174 0 0)
(0.131739 0 0)
(0.131739 0 0)
(0.131739 0 0)
(0.131739 0 0)
(0.131739 0 0)
(0.131739 0 0)
(0.131739 0 0)
(0.131739 0 0)
(0.131739 0 0)
(0.131738 0 0)
(0.131738 0 0)
(0.131738 0 0)
(0.131738 0 0)
(0.131738 0 0)
(0.131738 0 0)
(0.131738 0 0)
(0.131738 0 0)
(0.131738 0 0)
(0.131738 0 0)
(0.131738 0 0)
(0.131738 0 0)
(0.131738 0 0)
(0.131738 0 0)
(0.131738 0 0)
(0.131738 0 0)
(0.131738 0 0)
(0.131738 0 0)
(0.131738 0 0)
(0.131738 0 0)
(0.131738 0 0)
(0.131738 0 0)
(0.131738 0 0)
(0.131738 0 0)
(0.131738 0 0)
(0.131738 0 0)
(0.131738 0 0)
(0.131738 0 0)
(0.131738 0 0)
(0.131738 0 0)
(0.131738 0 0)
(0.131738 0 0)
(0.131738 0 0)
(0.131738 0 0)
(0.131738 0 0)
(0.131738 0 0)
(0.131738 0 0)
(0.131738 0 0)
(0.131738 0 0)
(0.131738 0 0)
(0.131738 0 0)
(0.131738 0 0)
(0.131738 0 0)
(0.131738 0 0)
(0.131738 0 0)
(0.131738 0 0)
(0.131738 0 0)
(0.131738 0 0)
(0.131738 0 0)
(0.131738 0 0)
(0.131738 0 0)
(0.131738 0 0)
(0.131738 0 0)
(0.131738 0 0)
(0.131738 0 0)
(0.131738 0 0)
(0.131738 0 0)
(0.131738 0 0)
(0.131738 0 0)
(0.131738 0 0)
(0.131738 0 0)
(0.131738 0 0)
(0.131738 0 0)
(0.131738 0 0)
(0.131738 0 0)
(0.131738 0 0)
(0.131738 0 0)
(0.131738 0 0)
(0.131738 0 0)
(0.131738 0 0)
(0.131738 0 0)
(0.131738 0 0)
(0.131738 0 0)
(0.131738 0 0)
(0.131738 0 0)
(0.131738 0 0)
(0.131738 0 0)
(0.131738 0 0)
(0.131738 0 0)
(0.131738 0 0)
(0.131738 0 0)
(0.131738 0 0)
(0.131738 0 0)
(0.131738 0 0)
(0.131738 0 0)
(0.131738 0 0)
(0.131738 0 0)
(0.131738 0 0)
(0.131738 0 0)
(0.131738 0 0)
(0.131738 0 0)
(0.131738 0 0)
(0.131738 0 0)
(0.131738 0 0)
(0.131738 0 0)
(0.131738 0 0)
(0.131738 0 0)
(0.131738 0 0)
(0.131738 0 0)
(0.131738 0 0)
(0.131738 0 0)
(0.131738 0 0)
(0.131738 0 0)
(0.131738 0 0)
(0.131738 0 0)
(0.131738 0 0)
(0.131738 0 0)
(0.131738 0 0)
(0.131738 0 0)
(0.131738 0 0)
(0.131738 0 0)
(0.131738 0 0)
(0.131738 0 0)
(0.131738 0 0)
(0.131738 0 0)
(0.131738 0 0)
(0.131738 0 0)
(0.131738 0 0)
(0.131738 0 0)
(0.131738 0 0)
(0.131738 0 0)
(0.131738 0 0)
(0.131738 0 0)
(0.131738 0 0)
(0.131738 0 0)
(0.131738 0 0)
(0.131738 0 0)
(0.131738 0 0)
(0.131738 0 0)
(0.131738 0 0)
(0.131738 0 0)
(0.131738 0 0)
(0.131738 0 0)
(0.131738 0 0)
(0.131738 0 0)
(0.131738 0 0)
(0.131738 0 0)
(0.131738 0 0)
(0.131738 0 0)
(0.131738 0 0)
(0.131738 0 0)
(0.131738 0 0)
(0.131738 0 0)
(0.131738 0 0)
(0.131738 0 0)
(0.131738 0 0)
(0.131738 0 0)
(0.131738 0 0)
(0.131738 0 0)
(0.131738 0 0)
(0.131738 0 0)
(0.131738 0 0)
(0.131738 0 0)
(0.131738 0 0)
(0.131738 0 0)
(0.131738 0 0)
(0.131738 0 0)
(0.131738 0 0)
(0.131738 0 0)
(0.131738 0 0)
(0.131738 0 0)
(0.131738 0 0)
(0.131738 0 0)
(0.131738 0 0)
(0.131738 0 0)
(0.131738 0 0)
(0.131738 0 0)
(0.131738 0 0)
(0.131738 0 0)
(0.131738 0 0)
(0.131738 0 0)
(0.131738 0 0)
(0.131738 0 0)
(0.131738 0 0)
(0.131738 0 0)
(0.131738 0 0)
(0.131738 0 0)
(0.131738 0 0)
(0.131738 0 0)
(0.131738 0 0)
(0.131738 0 0)
(0.131738 0 0)
(0.131738 0 0)
(0.131738 0 0)
(0.131738 0 0)
(0.131738 0 0)
(0.131738 0 0)
(0.131738 0 0)
(0.131738 0 0)
(0.131738 0 0)
(0.131738 0 0)
(0.131738 0 0)
(0.131738 0 0)
(0.131738 0 0)
(0.131738 0 0)
(0.131738 0 0)
(0.131738 0 0)
(0.131738 0 0)
(0.131738 0 0)
(0.131738 0 0)
(0.131738 0 0)
(0.131738 0 0)
(0.131738 0 0)
(0.131738 0 0)
(0.131738 0 0)
(0.131738 0 0)
(0.131738 0 0)
(0.131738 0 0)
(0.131738 0 0)
(0.131738 0 0)
(0.131738 0 0)
(0.131738 0 0)
(0.131738 0 0)
(0.131738 0 0)
(0.131738 0 0)
(0.131738 0 0)
(0.131738 0 0)
(0.131738 0 0)
(0.131738 0 0)
(0.131738 0 0)
(0.131738 0 0)
(0.131738 0 0)
(0.131738 0 0)
(0.131738 0 0)
(0.131738 0 0)
(0.131738 0 0)
(0.131738 0 0)
(0.131738 0 0)
(0.131738 0 0)
(0.131738 0 0)
(0.131738 0 0)
(0.131738 0 0)
(0.131738 0 0)
(0.131738 0 0)
(0.131738 0 0)
(0.131738 0 0)
(0.131738 0 0)
(0.131738 0 0)
(0.131738 0 0)
(0.131738 0 0)
(0.131738 0 0)
(0.131738 0 0)
(0.131738 0 0)
(0.131738 0 0)
(0.131738 0 0)
(0.131738 0 0)
(0.131738 0 0)
(0.131738 0 0)
(0.131738 0 0)
(0.131738 0 0)
(0.131738 0 0)
(0.131738 0 0)
(0.131738 0 0)
(0.131738 0 0)
(0.131738 0 0)
(0.131738 0 0)
(0.131738 0 0)
(0.131738 0 0)
(0.131738 0 0)
(0.131738 0 0)
(0.131738 0 0)
(0.131738 0 0)
(0.131738 0 0)
(0.131738 0 0)
(0.131738 0 0)
(0.131738 0 0)
(0.131738 0 0)
(0.131738 0 0)
(0.131738 0 0)
(0.131738 0 0)
(0.131738 0 0)
(0.131738 0 0)
(0.131738 0 0)
(0.131738 0 0)
(0.131738 0 0)
(0.131738 0 0)
(0.131738 0 0)
(0.131738 0 0)
(0.131738 0 0)
(0.131738 0 0)
(0.131738 0 0)
(0.131738 0 0)
(0.131738 0 0)
(0.131738 0 0)
(0.131738 0 0)
(0.131738 0 0)
(0.131738 0 0)
(0.131738 0 0)
(0.131738 0 0)
(0.131738 0 0)
(0.131738 0 0)
(0.131738 0 0)
(0.131738 0 0)
(0.131738 0 0)
(0.131738 0 0)
(0.131738 0 0)
(0.131738 0 0)
(0.131738 0 0)
(0.131738 0 0)
(0.131738 0 0)
(0.131738 0 0)
(0.131738 0 0)
(0.131738 0 0)
(0.131738 0 0)
(0.131738 0 0)
(0.131738 0 0)
(0.131738 0 0)
(0.131738 0 0)
(0.131738 0 0)
(0.131738 0 0)
(0.131738 0 0)
(0.131738 0 0)
(0.131738 0 0)
(0.131738 0 0)
(0.131738 0 0)
(0.131738 0 0)
(0.131738 0 0)
(0.131738 0 0)
(0.131738 0 0)
(0.131738 0 0)
(0.131738 0 0)
(0.131738 0 0)
(0.131738 0 0)
(0.131738 0 0)
(0.131738 0 0)
(0.131738 0 0)
(0.131738 0 0)
(0.131738 0 0)
(0.131738 0 0)
(0.131738 0 0)
(0.131738 0 0)
(0.131738 0 0)
(0.131738 0 0)
(0.131738 0 0)
(0.131738 0 0)
(0.131738 0 0)
(0.131738 0 0)
(0.131738 0 0)
(0.131738 0 0)
(0.131738 0 0)
(0.131738 0 0)
(0.131738 0 0)
(0.131738 0 0)
(0.131738 0 0)
(0.131738 0 0)
(0.131738 0 0)
(0.131738 0 0)
(0.131738 0 0)
(0.131738 0 0)
(0.131738 0 0)
(0.131738 0 0)
(0.131738 0 0)
(0.131738 0 0)
(0.131738 0 0)
(0.131738 0 0)
(0.131738 0 0)
(0.131738 0 0)
(0.131738 0 0)
(0.131738 0 0)
(0.131738 0 0)
(0.131738 0 0)
(0.131738 0 0)
(0.131738 0 0)
(0.131738 0 0)
(0.131738 0 0)
(0.131738 0 0)
(0.131738 0 0)
(0.131738 0 0)
(0.131738 0 0)
(0.131738 0 0)
(0.131738 0 0)
(0.131738 0 0)
(0.131738 0 0)
(0.131738 0 0)
(0.131738 0 0)
(0.131738 0 0)
(0.131738 0 0)
(0.131738 0 0)
(0.131738 0 0)
(0.131738 0 0)
(0.131738 0 0)
(0.131738 0 0)
(0.131738 0 0)
(0.131738 0 0)
(0.131738 0 0)
(0.131738 0 0)
(0.131738 0 0)
(0.131738 0 0)
(0.131738 0 0)
(0.131738 0 0)
(0.131738 0 0)
(0.131738 0 0)
(0.131738 0 0)
(0.131738 0 0)
(0.131738 0 0)
(0.131738 0 0)
(0.131738 0 0)
(0.131738 0 0)
(0.131738 0 0)
(0.131738 0 0)
(0.131738 0 0)
(0.131738 0 0)
(0.131738 0 0)
(0.131738 0 0)
(0.131738 0 0)
(0.131738 0 0)
(0.131738 0 0)
(0.131738 0 0)
(0.131738 0 0)
(0.131738 0 0)
(0.131738 0 0)
(0.131738 0 0)
(0.131738 0 0)
(0.131738 0 0)
(0.131738 0 0)
(0.131738 0 0)
(0.131738 0 0)
(0.131738 0 0)
(0.131738 0 0)
(0.131738 0 0)
(0.131738 0 0)
(0.131738 0 0)
(0.131738 0 0)
(0.131738 0 0)
(0.131738 0 0)
(0.131738 0 0)
(0.131738 0 0)
(0.131738 0 0)
(0.131738 0 0)
(0.131738 0 0)
(0.131738 0 0)
(0.131738 0 0)
(0.131738 0 0)
(0.131738 0 0)
(0.131738 0 0)
(0.131738 0 0)
(0.131738 0 0)
(0.131738 0 0)
(0.131738 0 0)
(0.131738 0 0)
(0.131738 0 0)
(0.131738 0 0)
(0.131738 0 0)
(0.131738 0 0)
(0.131738 0 0)
(0.131738 0 0)
(0.131738 0 0)
(0.131738 0 0)
(0.131738 0 0)
(0.131738 0 0)
(0.131738 0 0)
(0.131738 0 0)
(0.131738 0 0)
(0.131738 0 0)
(0.131738 0 0)
(0.131738 0 0)
(0.131738 0 0)
(0.131738 0 0)
(0.131738 0 0)
(0.131738 0 0)
(0.131738 0 0)
(0.131738 0 0)
(0.131738 0 0)
(0.131738 0 0)
(0.131738 0 0)
(0.131738 0 0)
(0.131738 0 0)
(0.131738 0 0)
(0.131738 0 0)
(0.131738 0 0)
(0.131738 0 0)
(0.131738 0 0)
(0.131738 0 0)
(0.131738 0 0)
(0.131738 0 0)
(0.131738 0 0)
(0.131738 0 0)
(0.131738 0 0)
(0.131738 0 0)
(0.131738 0 0)
(0.131738 0 0)
(0.131738 0 0)
(0.131738 0 0)
(0.131738 0 0)
(0.131738 0 0)
(0.131738 0 0)
(0.131738 0 0)
(0.131738 0 0)
(0.131738 0 0)
(0.131738 0 0)
(0.131738 0 0)
(0.131738 0 0)
(0.131738 0 0)
(0.131738 0 0)
(0.131738 0 0)
(0.131738 0 0)
(0.131738 0 0)
(0.131738 0 0)
(0.131738 0 0)
(0.131738 0 0)
(0.131738 0 0)
(0.131738 0 0)
(0.131738 0 0)
(0.131738 0 0)
(0.131738 0 0)
(0.131738 0 0)
(0.131738 0 0)
(0.131738 0 0)
(0.131738 0 0)
(0.131738 0 0)
(0.131738 0 0)
(0.131738 0 0)
(0.131738 0 0)
(0.131738 0 0)
(0.131738 0 0)
(0.131738 0 0)
(0.131738 0 0)
(0.131738 0 0)
(0.131738 0 0)
(0.131738 0 0)
(0.131738 0 0)
(0.131738 0 0)
(0.131738 0 0)
(0.131738 0 0)
(0.131738 0 0)
(0.131738 0 0)
(0.131738 0 0)
(0.131738 0 0)
(0.131738 0 0)
(0.131738 0 0)
(0.131738 0 0)
(0.131738 0 0)
(0.131738 0 0)
(0.131738 0 0)
(0.131738 0 0)
(0.131738 0 0)
(0.131738 0 0)
(0.131738 0 0)
(0.131738 0 0)
(0.131738 0 0)
(0.131738 0 0)
(0.131738 0 0)
(0.131738 0 0)
(0.131738 0 0)
(0.131738 0 0)
(0.131738 0 0)
(0.131738 0 0)
(0.131738 0 0)
(0.131738 0 0)
(0.131738 0 0)
(0.131738 0 0)
(0.131738 0 0)
(0.131738 0 0)
(0.131738 0 0)
(0.131738 0 0)
(0.131738 0 0)
(0.131738 0 0)
(0.131738 0 0)
(0.131738 0 0)
(0.131738 0 0)
(0.131738 0 0)
(0.131738 0 0)
(0.131738 0 0)
(0.131738 0 0)
(0.131738 0 0)
(0.131738 0 0)
(0.131738 0 0)
(0.131738 0 0)
(0.131738 0 0)
(0.131738 0 0)
(0.131738 0 0)
(0.131738 0 0)
(0.131738 0 0)
(0.131738 0 0)
(0.131738 0 0)
(0.131738 0 0)
(0.131738 0 0)
(0.131738 0 0)
(0.131738 0 0)
(0.131738 0 0)
(0.131738 0 0)
(0.131738 0 0)
(0.131738 0 0)
(0.131738 0 0)
(0.131738 0 0)
(0.131738 0 0)
(0.131738 0 0)
(0.131738 0 0)
(0.131738 0 0)
(0.131738 0 0)
(0.131738 0 0)
(0.131738 0 0)
(0.131738 0 0)
(0.131738 0 0)
(0.131738 0 0)
(0.131738 0 0)
(0.131738 0 0)
(0.131738 0 0)
(0.131738 0 0)
(0.131738 0 0)
(0.131738 0 0)
(0.131738 0 0)
(0.131738 0 0)
(0.131738 0 0)
(0.131738 0 0)
(0.131738 0 0)
(0.131738 0 0)
(0.131738 0 0)
(0.131738 0 0)
(0.131738 0 0)
(0.131738 0 0)
(0.131738 0 0)
(0.131738 0 0)
(0.131738 0 0)
(0.131738 0 0)
(0.131738 0 0)
(0.131738 0 0)
(0.131738 0 0)
(0.131738 0 0)
(0.131738 0 0)
(0.131737 0 0)
(0.131739 0 0)
(0.131737 0 0)
(0.131739 0 0)
(0.131737 0 0)
(0.131739 0 0)
(0.131737 0 0)
(0.131739 0 0)
(0.131737 0 0)
(0.131739 0 0)
(0.131736 0 0)
(0.131739 0 0)
(0.131736 0 0)
(0.13174 0 0)
(0.131736 0 0)
(0.13174 0 0)
(0.131735 0 0)
(0.13174 0 0)
(0.131735 0 0)
(0.131741 0 0)
(0.131734 0 0)
(0.131741 0 0)
(0.131733 0 0)
(0.131742 0 0)
(0.131733 0 0)
(0.131743 0 0)
(0.131732 0 0)
(0.131743 0 0)
(0.13173 0 0)
(0.131744 0 0)
(0.131729 0 0)
(0.131745 0 0)
(0.131728 0 0)
)
;

boundaryField
{
    topWall
    {
        type            empty;
    }
    bottomWall
    {
        type            empty;
    }
    leftAndRight_half1
    {
        type            cyclic;
    }
    leftAndRight_half0
    {
        type            cyclic;
    }
    frontAndBack
    {
        type            empty;
    }
}


// ************************************************************************* //
