/*--------------------------------*- C++ -*----------------------------------*\
  =========                 |
  \\      /  F ield         | OpenFOAM: The Open Source CFD Toolbox
   \\    /   O peration     | Website:  https://openfoam.org
    \\  /    A nd           | Version:  9
     \\/     M anipulation  |
\*---------------------------------------------------------------------------*/
FoamFile
{
    format      ascii;
    class       volVectorField;
    location    "1.5";
    object      U;
}
// * * * * * * * * * * * * * * * * * * * * * * * * * * * * * * * * * * * * * //

dimensions      [0 1 -1 0 0 0 0];

internalField   nonuniform List<vector> 
1000
(
(0.131748 0 0)
(0.131724 0 0)
(0.131749 0 0)
(0.131721 0 0)
(0.13175 0 0)
(0.131719 0 0)
(0.131751 0 0)
(0.131717 0 0)
(0.131753 0 0)
(0.131714 0 0)
(0.131754 0 0)
(0.131711 0 0)
(0.131755 0 0)
(0.131707 0 0)
(0.131757 0 0)
(0.131703 0 0)
(0.131758 0 0)
(0.131699 0 0)
(0.13176 0 0)
(0.131695 0 0)
(0.131761 0 0)
(0.13169 0 0)
(0.131762 0 0)
(0.131685 0 0)
(0.131763 0 0)
(0.13168 0 0)
(0.131764 0 0)
(0.131674 0 0)
(0.131765 0 0)
(0.131668 0 0)
(0.131766 0 0)
(0.131661 0 0)
(0.131766 0 0)
(0.131654 0 0)
(0.131766 0 0)
(0.131647 0 0)
(0.131765 0 0)
(0.13164 0 0)
(0.131764 0 0)
(0.131632 0 0)
(0.131763 0 0)
(0.131624 0 0)
(0.131761 0 0)
(0.131616 0 0)
(0.131759 0 0)
(0.131607 0 0)
(0.131756 0 0)
(0.131599 0 0)
(0.131753 0 0)
(0.131591 0 0)
(0.131749 0 0)
(0.131582 0 0)
(0.131745 0 0)
(0.131574 0 0)
(0.13174 0 0)
(0.131567 0 0)
(0.131735 0 0)
(0.131559 0 0)
(0.13173 0 0)
(0.131552 0 0)
(0.131724 0 0)
(0.131546 0 0)
(0.131719 0 0)
(0.131541 0 0)
(0.131713 0 0)
(0.131536 0 0)
(0.131708 0 0)
(0.131533 0 0)
(0.131703 0 0)
(0.131531 0 0)
(0.131699 0 0)
(0.131531 0 0)
(0.131696 0 0)
(0.131532 0 0)
(0.131693 0 0)
(0.131535 0 0)
(0.131692 0 0)
(0.131541 0 0)
(0.131693 0 0)
(0.131548 0 0)
(0.131695 0 0)
(0.131559 0 0)
(0.131701 0 0)
(0.131571 0 0)
(0.13171 0 0)
(0.131584 0 0)
(0.131726 0 0)
(0.131593 0 0)
(0.131755 0 0)
(0.131594 0 0)
(0.131806 0 0)
(0.13158 0 0)
(0.131881 0 0)
(0.131562 0 0)
(0.131968 0 0)
(0.131579 0 0)
(0.132034 0 0)
(0.13168 0 0)
(0.132068 0 0)
(0.131858 0 0)
(0.132128 0 0)
(0.132041 0 0)
(0.132239 0 0)
(0.132199 0 0)
(0.132366 0 0)
(0.132332 0 0)
(0.132479 0 0)
(0.132442 0 0)
(0.132568 0 0)
(0.132531 0 0)
(0.132638 0 0)
(0.132603 0 0)
(0.132696 0 0)
(0.132666 0 0)
(0.132748 0 0)
(0.132726 0 0)
(0.1328 0 0)
(0.132785 0 0)
(0.132853 0 0)
(0.132846 0 0)
(0.132908 0 0)
(0.13291 0 0)
(0.132967 0 0)
(0.132976 0 0)
(0.133028 0 0)
(0.133044 0 0)
(0.133092 0 0)
(0.133113 0 0)
(0.133159 0 0)
(0.133185 0 0)
(0.133227 0 0)
(0.133258 0 0)
(0.133297 0 0)
(0.133332 0 0)
(0.133369 0 0)
(0.133407 0 0)
(0.133441 0 0)
(0.133482 0 0)
(0.133514 0 0)
(0.133557 0 0)
(0.133588 0 0)
(0.133632 0 0)
(0.133661 0 0)
(0.133706 0 0)
(0.133734 0 0)
(0.13378 0 0)
(0.133806 0 0)
(0.133852 0 0)
(0.133877 0 0)
(0.133923 0 0)
(0.133947 0 0)
(0.133992 0 0)
(0.134015 0 0)
(0.134059 0 0)
(0.134081 0 0)
(0.134124 0 0)
(0.134145 0 0)
(0.134187 0 0)
(0.134207 0 0)
(0.134247 0 0)
(0.134266 0 0)
(0.134305 0 0)
(0.134322 0 0)
(0.13436 0 0)
(0.134376 0 0)
(0.134411 0 0)
(0.134426 0 0)
(0.13446 0 0)
(0.134473 0 0)
(0.134505 0 0)
(0.134517 0 0)
(0.134546 0 0)
(0.134558 0 0)
(0.134584 0 0)
(0.134594 0 0)
(0.134619 0 0)
(0.134628 0 0)
(0.13465 0 0)
(0.134657 0 0)
(0.134677 0 0)
(0.134682 0 0)
(0.134699 0 0)
(0.134703 0 0)
(0.134718 0 0)
(0.13472 0 0)
(0.134733 0 0)
(0.134732 0 0)
(0.134744 0 0)
(0.134739 0 0)
(0.134751 0 0)
(0.134741 0 0)
(0.134754 0 0)
(0.13474 0 0)
(0.13475 0 0)
(0.134736 0 0)
(0.134741 0 0)
(0.134728 0 0)
(0.134729 0 0)
(0.134719 0 0)
(0.13472 0 0)
(0.134712 0 0)
(0.134713 0 0)
(0.134701 0 0)
(0.134685 0 0)
(0.134639 0 0)
(0.134573 0 0)
(0.134476 0 0)
(0.134372 0 0)
(0.134261 0 0)
(0.134168 0 0)
(0.134086 0 0)
(0.134026 0 0)
(0.133976 0 0)
(0.133941 0 0)
(0.133908 0 0)
(0.133884 0 0)
(0.133858 0 0)
(0.133837 0 0)
(0.133812 0 0)
(0.13379 0 0)
(0.133765 0 0)
(0.133742 0 0)
(0.133715 0 0)
(0.13369 0 0)
(0.133662 0 0)
(0.133635 0 0)
(0.133605 0 0)
(0.133577 0 0)
(0.133546 0 0)
(0.133516 0 0)
(0.133484 0 0)
(0.133453 0 0)
(0.13342 0 0)
(0.133387 0 0)
(0.133354 0 0)
(0.13332 0 0)
(0.133286 0 0)
(0.133252 0 0)
(0.133217 0 0)
(0.133183 0 0)
(0.133148 0 0)
(0.133113 0 0)
(0.133078 0 0)
(0.133042 0 0)
(0.133007 0 0)
(0.132972 0 0)
(0.132937 0 0)
(0.132902 0 0)
(0.132868 0 0)
(0.132833 0 0)
(0.132799 0 0)
(0.132765 0 0)
(0.132732 0 0)
(0.132698 0 0)
(0.132666 0 0)
(0.132633 0 0)
(0.132601 0 0)
(0.13257 0 0)
(0.132539 0 0)
(0.132509 0 0)
(0.132479 0 0)
(0.13245 0 0)
(0.132421 0 0)
(0.132393 0 0)
(0.132366 0 0)
(0.132339 0 0)
(0.132314 0 0)
(0.132288 0 0)
(0.132264 0 0)
(0.13224 0 0)
(0.132216 0 0)
(0.132194 0 0)
(0.132172 0 0)
(0.132151 0 0)
(0.132131 0 0)
(0.132111 0 0)
(0.132092 0 0)
(0.132074 0 0)
(0.132056 0 0)
(0.132039 0 0)
(0.132023 0 0)
(0.132007 0 0)
(0.131992 0 0)
(0.131978 0 0)
(0.131964 0 0)
(0.131951 0 0)
(0.131938 0 0)
(0.131926 0 0)
(0.131915 0 0)
(0.131904 0 0)
(0.131894 0 0)
(0.131884 0 0)
(0.131874 0 0)
(0.131866 0 0)
(0.131857 0 0)
(0.131849 0 0)
(0.131842 0 0)
(0.131835 0 0)
(0.131828 0 0)
(0.131822 0 0)
(0.131816 0 0)
(0.13181 0 0)
(0.131805 0 0)
(0.1318 0 0)
(0.131796 0 0)
(0.131791 0 0)
(0.131787 0 0)
(0.131784 0 0)
(0.13178 0 0)
(0.131777 0 0)
(0.131774 0 0)
(0.131771 0 0)
(0.131768 0 0)
(0.131766 0 0)
(0.131763 0 0)
(0.131761 0 0)
(0.131759 0 0)
(0.131758 0 0)
(0.131756 0 0)
(0.131754 0 0)
(0.131753 0 0)
(0.131752 0 0)
(0.13175 0 0)
(0.131749 0 0)
(0.131748 0 0)
(0.131747 0 0)
(0.131746 0 0)
(0.131746 0 0)
(0.131745 0 0)
(0.131744 0 0)
(0.131744 0 0)
(0.131743 0 0)
(0.131743 0 0)
(0.131742 0 0)
(0.131742 0 0)
(0.131741 0 0)
(0.131741 0 0)
(0.131741 0 0)
(0.13174 0 0)
(0.13174 0 0)
(0.13174 0 0)
(0.13174 0 0)
(0.13174 0 0)
(0.131739 0 0)
(0.131739 0 0)
(0.131739 0 0)
(0.131739 0 0)
(0.131739 0 0)
(0.131739 0 0)
(0.131739 0 0)
(0.131739 0 0)
(0.131739 0 0)
(0.131738 0 0)
(0.131738 0 0)
(0.131738 0 0)
(0.131738 0 0)
(0.131738 0 0)
(0.131738 0 0)
(0.131738 0 0)
(0.131738 0 0)
(0.131738 0 0)
(0.131738 0 0)
(0.131738 0 0)
(0.131738 0 0)
(0.131738 0 0)
(0.131738 0 0)
(0.131738 0 0)
(0.131738 0 0)
(0.131738 0 0)
(0.131738 0 0)
(0.131738 0 0)
(0.131738 0 0)
(0.131738 0 0)
(0.131738 0 0)
(0.131738 0 0)
(0.131738 0 0)
(0.131738 0 0)
(0.131738 0 0)
(0.131738 0 0)
(0.131738 0 0)
(0.131738 0 0)
(0.131738 0 0)
(0.131738 0 0)
(0.131738 0 0)
(0.131738 0 0)
(0.131738 0 0)
(0.131738 0 0)
(0.131738 0 0)
(0.131738 0 0)
(0.131738 0 0)
(0.131738 0 0)
(0.131738 0 0)
(0.131738 0 0)
(0.131738 0 0)
(0.131738 0 0)
(0.131738 0 0)
(0.131738 0 0)
(0.131738 0 0)
(0.131738 0 0)
(0.131738 0 0)
(0.131738 0 0)
(0.131738 0 0)
(0.131738 0 0)
(0.131738 0 0)
(0.131738 0 0)
(0.131738 0 0)
(0.131738 0 0)
(0.131738 0 0)
(0.131738 0 0)
(0.131738 0 0)
(0.131738 0 0)
(0.131738 0 0)
(0.131738 0 0)
(0.131738 0 0)
(0.131738 0 0)
(0.131738 0 0)
(0.131738 0 0)
(0.131738 0 0)
(0.131738 0 0)
(0.131738 0 0)
(0.131738 0 0)
(0.131738 0 0)
(0.131738 0 0)
(0.131738 0 0)
(0.131738 0 0)
(0.131738 0 0)
(0.131738 0 0)
(0.131738 0 0)
(0.131738 0 0)
(0.131738 0 0)
(0.131738 0 0)
(0.131738 0 0)
(0.131738 0 0)
(0.131738 0 0)
(0.131738 0 0)
(0.131738 0 0)
(0.131738 0 0)
(0.131738 0 0)
(0.131738 0 0)
(0.131738 0 0)
(0.131738 0 0)
(0.131738 0 0)
(0.131738 0 0)
(0.131738 0 0)
(0.131738 0 0)
(0.131738 0 0)
(0.131738 0 0)
(0.131738 0 0)
(0.131738 0 0)
(0.131738 0 0)
(0.131738 0 0)
(0.131738 0 0)
(0.131738 0 0)
(0.131738 0 0)
(0.131738 0 0)
(0.131738 0 0)
(0.131738 0 0)
(0.131738 0 0)
(0.131738 0 0)
(0.131738 0 0)
(0.131738 0 0)
(0.131738 0 0)
(0.131738 0 0)
(0.131738 0 0)
(0.131738 0 0)
(0.131738 0 0)
(0.131738 0 0)
(0.131738 0 0)
(0.131738 0 0)
(0.131738 0 0)
(0.131738 0 0)
(0.131738 0 0)
(0.131738 0 0)
(0.131738 0 0)
(0.131738 0 0)
(0.131738 0 0)
(0.131738 0 0)
(0.131738 0 0)
(0.131738 0 0)
(0.131738 0 0)
(0.131738 0 0)
(0.131738 0 0)
(0.131738 0 0)
(0.131738 0 0)
(0.131738 0 0)
(0.131738 0 0)
(0.131738 0 0)
(0.131738 0 0)
(0.131738 0 0)
(0.131738 0 0)
(0.131738 0 0)
(0.131738 0 0)
(0.131738 0 0)
(0.131738 0 0)
(0.131738 0 0)
(0.131738 0 0)
(0.131738 0 0)
(0.131738 0 0)
(0.131738 0 0)
(0.131738 0 0)
(0.131738 0 0)
(0.131738 0 0)
(0.131738 0 0)
(0.131738 0 0)
(0.131738 0 0)
(0.131738 0 0)
(0.131738 0 0)
(0.131738 0 0)
(0.131738 0 0)
(0.131738 0 0)
(0.131738 0 0)
(0.131738 0 0)
(0.131738 0 0)
(0.131738 0 0)
(0.131738 0 0)
(0.131738 0 0)
(0.131738 0 0)
(0.131738 0 0)
(0.131738 0 0)
(0.131738 0 0)
(0.131738 0 0)
(0.131738 0 0)
(0.131738 0 0)
(0.131738 0 0)
(0.131738 0 0)
(0.131738 0 0)
(0.131738 0 0)
(0.131738 0 0)
(0.131738 0 0)
(0.131738 0 0)
(0.131738 0 0)
(0.131738 0 0)
(0.131738 0 0)
(0.131738 0 0)
(0.131738 0 0)
(0.131738 0 0)
(0.131738 0 0)
(0.131738 0 0)
(0.131738 0 0)
(0.131738 0 0)
(0.131738 0 0)
(0.131738 0 0)
(0.131738 0 0)
(0.131738 0 0)
(0.131738 0 0)
(0.131738 0 0)
(0.131738 0 0)
(0.131738 0 0)
(0.131738 0 0)
(0.131738 0 0)
(0.131738 0 0)
(0.131738 0 0)
(0.131738 0 0)
(0.131738 0 0)
(0.131738 0 0)
(0.131738 0 0)
(0.131738 0 0)
(0.131738 0 0)
(0.131738 0 0)
(0.131738 0 0)
(0.131738 0 0)
(0.131738 0 0)
(0.131738 0 0)
(0.131738 0 0)
(0.131738 0 0)
(0.131738 0 0)
(0.131738 0 0)
(0.131738 0 0)
(0.131738 0 0)
(0.131738 0 0)
(0.131738 0 0)
(0.131738 0 0)
(0.131738 0 0)
(0.131738 0 0)
(0.131738 0 0)
(0.131738 0 0)
(0.131738 0 0)
(0.131738 0 0)
(0.131738 0 0)
(0.131738 0 0)
(0.131738 0 0)
(0.131738 0 0)
(0.131738 0 0)
(0.131738 0 0)
(0.131738 0 0)
(0.131738 0 0)
(0.131738 0 0)
(0.131738 0 0)
(0.131738 0 0)
(0.131738 0 0)
(0.131738 0 0)
(0.131738 0 0)
(0.131738 0 0)
(0.131738 0 0)
(0.131738 0 0)
(0.131738 0 0)
(0.131738 0 0)
(0.131738 0 0)
(0.131738 0 0)
(0.131738 0 0)
(0.131738 0 0)
(0.131738 0 0)
(0.131738 0 0)
(0.131738 0 0)
(0.131738 0 0)
(0.131738 0 0)
(0.131738 0 0)
(0.131738 0 0)
(0.131738 0 0)
(0.131738 0 0)
(0.131738 0 0)
(0.131738 0 0)
(0.131738 0 0)
(0.131738 0 0)
(0.131738 0 0)
(0.131738 0 0)
(0.131738 0 0)
(0.131738 0 0)
(0.131738 0 0)
(0.131738 0 0)
(0.131738 0 0)
(0.131738 0 0)
(0.131738 0 0)
(0.131738 0 0)
(0.131738 0 0)
(0.131738 0 0)
(0.131738 0 0)
(0.131738 0 0)
(0.131738 0 0)
(0.131738 0 0)
(0.131738 0 0)
(0.131738 0 0)
(0.131738 0 0)
(0.131738 0 0)
(0.131738 0 0)
(0.131738 0 0)
(0.131738 0 0)
(0.131738 0 0)
(0.131738 0 0)
(0.131738 0 0)
(0.131738 0 0)
(0.131738 0 0)
(0.131738 0 0)
(0.131738 0 0)
(0.131738 0 0)
(0.131738 0 0)
(0.131738 0 0)
(0.131738 0 0)
(0.131738 0 0)
(0.131738 0 0)
(0.131738 0 0)
(0.131738 0 0)
(0.131738 0 0)
(0.131738 0 0)
(0.131738 0 0)
(0.131738 0 0)
(0.131738 0 0)
(0.131738 0 0)
(0.131738 0 0)
(0.131738 0 0)
(0.131738 0 0)
(0.131738 0 0)
(0.131738 0 0)
(0.131738 0 0)
(0.131738 0 0)
(0.131738 0 0)
(0.131738 0 0)
(0.131738 0 0)
(0.131738 0 0)
(0.131738 0 0)
(0.131738 0 0)
(0.131738 0 0)
(0.131738 0 0)
(0.131738 0 0)
(0.131738 0 0)
(0.131738 0 0)
(0.131738 0 0)
(0.131738 0 0)
(0.131738 0 0)
(0.131738 0 0)
(0.131738 0 0)
(0.131738 0 0)
(0.131738 0 0)
(0.131738 0 0)
(0.131738 0 0)
(0.131738 0 0)
(0.131738 0 0)
(0.131738 0 0)
(0.131738 0 0)
(0.131738 0 0)
(0.131738 0 0)
(0.131738 0 0)
(0.131738 0 0)
(0.131738 0 0)
(0.131738 0 0)
(0.131738 0 0)
(0.131738 0 0)
(0.131738 0 0)
(0.131738 0 0)
(0.131738 0 0)
(0.131738 0 0)
(0.131738 0 0)
(0.131738 0 0)
(0.131738 0 0)
(0.131738 0 0)
(0.131738 0 0)
(0.131738 0 0)
(0.131738 0 0)
(0.131738 0 0)
(0.131738 0 0)
(0.131738 0 0)
(0.131738 0 0)
(0.131738 0 0)
(0.131738 0 0)
(0.131738 0 0)
(0.131738 0 0)
(0.131738 0 0)
(0.131738 0 0)
(0.131738 0 0)
(0.131738 0 0)
(0.131738 0 0)
(0.131738 0 0)
(0.131738 0 0)
(0.131738 0 0)
(0.131738 0 0)
(0.131738 0 0)
(0.131738 0 0)
(0.131738 0 0)
(0.131738 0 0)
(0.131738 0 0)
(0.131738 0 0)
(0.131738 0 0)
(0.131738 0 0)
(0.131738 0 0)
(0.131738 0 0)
(0.131738 0 0)
(0.131738 0 0)
(0.131738 0 0)
(0.131738 0 0)
(0.131738 0 0)
(0.131738 0 0)
(0.131738 0 0)
(0.131738 0 0)
(0.131738 0 0)
(0.131738 0 0)
(0.131738 0 0)
(0.131738 0 0)
(0.131738 0 0)
(0.131738 0 0)
(0.131738 0 0)
(0.131738 0 0)
(0.131738 0 0)
(0.131738 0 0)
(0.131738 0 0)
(0.131738 0 0)
(0.131738 0 0)
(0.131738 0 0)
(0.131738 0 0)
(0.131738 0 0)
(0.131738 0 0)
(0.131738 0 0)
(0.131738 0 0)
(0.131738 0 0)
(0.131738 0 0)
(0.131738 0 0)
(0.131738 0 0)
(0.131738 0 0)
(0.131738 0 0)
(0.131738 0 0)
(0.131738 0 0)
(0.131738 0 0)
(0.131738 0 0)
(0.131738 0 0)
(0.131738 0 0)
(0.131738 0 0)
(0.131738 0 0)
(0.131738 0 0)
(0.131738 0 0)
(0.131738 0 0)
(0.131738 0 0)
(0.131738 0 0)
(0.131738 0 0)
(0.131738 0 0)
(0.131738 0 0)
(0.131738 0 0)
(0.131738 0 0)
(0.131738 0 0)
(0.131738 0 0)
(0.131738 0 0)
(0.131738 0 0)
(0.131738 0 0)
(0.131738 0 0)
(0.131738 0 0)
(0.131738 0 0)
(0.131738 0 0)
(0.131738 0 0)
(0.131738 0 0)
(0.131738 0 0)
(0.131738 0 0)
(0.131738 0 0)
(0.131738 0 0)
(0.131738 0 0)
(0.131738 0 0)
(0.131738 0 0)
(0.131738 0 0)
(0.131738 0 0)
(0.131738 0 0)
(0.131738 0 0)
(0.131738 0 0)
(0.131738 0 0)
(0.131738 0 0)
(0.131738 0 0)
(0.131738 0 0)
(0.131738 0 0)
(0.131738 0 0)
(0.131738 0 0)
(0.131738 0 0)
(0.131738 0 0)
(0.131738 0 0)
(0.131738 0 0)
(0.131738 0 0)
(0.131738 0 0)
(0.131738 0 0)
(0.131738 0 0)
(0.131738 0 0)
(0.131738 0 0)
(0.131738 0 0)
(0.131738 0 0)
(0.131738 0 0)
(0.131738 0 0)
(0.131738 0 0)
(0.131738 0 0)
(0.131738 0 0)
(0.131738 0 0)
(0.131738 0 0)
(0.131738 0 0)
(0.131738 0 0)
(0.131738 0 0)
(0.131738 0 0)
(0.131738 0 0)
(0.131738 0 0)
(0.131738 0 0)
(0.131738 0 0)
(0.131738 0 0)
(0.131738 0 0)
(0.131738 0 0)
(0.131738 0 0)
(0.131738 0 0)
(0.131738 0 0)
(0.131738 0 0)
(0.131738 0 0)
(0.131738 0 0)
(0.131738 0 0)
(0.131738 0 0)
(0.131738 0 0)
(0.131738 0 0)
(0.131738 0 0)
(0.131738 0 0)
(0.131738 0 0)
(0.131738 0 0)
(0.131738 0 0)
(0.131738 0 0)
(0.131738 0 0)
(0.131738 0 0)
(0.131738 0 0)
(0.131738 0 0)
(0.131738 0 0)
(0.131738 0 0)
(0.131738 0 0)
(0.131738 0 0)
(0.131738 0 0)
(0.131738 0 0)
(0.131738 0 0)
(0.131738 0 0)
(0.131738 0 0)
(0.131738 0 0)
(0.131738 0 0)
(0.131738 0 0)
(0.131738 0 0)
(0.131738 0 0)
(0.131738 0 0)
(0.131738 0 0)
(0.131738 0 0)
(0.131738 0 0)
(0.131738 0 0)
(0.131738 0 0)
(0.131738 0 0)
(0.131738 0 0)
(0.131738 0 0)
(0.131738 0 0)
(0.131738 0 0)
(0.131738 0 0)
(0.131738 0 0)
(0.131738 0 0)
(0.131738 0 0)
(0.131738 0 0)
(0.131738 0 0)
(0.131738 0 0)
(0.131738 0 0)
(0.131738 0 0)
(0.131738 0 0)
(0.131738 0 0)
(0.131738 0 0)
(0.131738 0 0)
(0.131738 0 0)
(0.131738 0 0)
(0.131738 0 0)
(0.131738 0 0)
(0.131738 0 0)
(0.131738 0 0)
(0.131738 0 0)
(0.131738 0 0)
(0.131738 0 0)
(0.131738 0 0)
(0.131738 0 0)
(0.131738 0 0)
(0.131738 0 0)
(0.131738 0 0)
(0.131738 0 0)
(0.131738 0 0)
(0.131738 0 0)
(0.131738 0 0)
(0.131738 0 0)
(0.131738 0 0)
(0.131738 0 0)
(0.131738 0 0)
(0.131738 0 0)
(0.131738 0 0)
(0.131738 0 0)
(0.131738 0 0)
(0.131738 0 0)
(0.131738 0 0)
(0.131738 0 0)
(0.131738 0 0)
(0.131738 0 0)
(0.131738 0 0)
(0.131738 0 0)
(0.131738 0 0)
(0.131738 0 0)
(0.131738 0 0)
(0.131738 0 0)
(0.131738 0 0)
(0.131738 0 0)
(0.131738 0 0)
(0.131738 0 0)
(0.131738 0 0)
(0.131738 0 0)
(0.131738 0 0)
(0.131738 0 0)
(0.131738 0 0)
(0.131738 0 0)
(0.131738 0 0)
(0.131738 0 0)
(0.131738 0 0)
(0.131738 0 0)
(0.131738 0 0)
(0.131738 0 0)
(0.131738 0 0)
(0.131738 0 0)
(0.131738 0 0)
(0.131738 0 0)
(0.131738 0 0)
(0.131738 0 0)
(0.131737 0 0)
(0.131739 0 0)
(0.131737 0 0)
(0.131739 0 0)
(0.131737 0 0)
(0.131739 0 0)
(0.131737 0 0)
(0.131739 0 0)
(0.131737 0 0)
(0.131739 0 0)
(0.131736 0 0)
(0.131739 0 0)
(0.131736 0 0)
(0.13174 0 0)
(0.131736 0 0)
(0.13174 0 0)
(0.131735 0 0)
(0.13174 0 0)
(0.131735 0 0)
(0.131741 0 0)
(0.131734 0 0)
(0.131741 0 0)
(0.131734 0 0)
(0.131742 0 0)
(0.131733 0 0)
(0.131742 0 0)
(0.131732 0 0)
(0.131743 0 0)
(0.131731 0 0)
(0.131744 0 0)
(0.13173 0 0)
(0.131745 0 0)
(0.131729 0 0)
(0.131746 0 0)
(0.131727 0 0)
(0.131747 0 0)
(0.131725 0 0)
)
;

boundaryField
{
    topWall
    {
        type            empty;
    }
    bottomWall
    {
        type            empty;
    }
    leftAndRight_half1
    {
        type            cyclic;
    }
    leftAndRight_half0
    {
        type            cyclic;
    }
    frontAndBack
    {
        type            empty;
    }
}


// ************************************************************************* //
