/*--------------------------------*- C++ -*----------------------------------*\
  =========                 |
  \\      /  F ield         | OpenFOAM: The Open Source CFD Toolbox
   \\    /   O peration     | Website:  https://openfoam.org
    \\  /    A nd           | Version:  9
     \\/     M anipulation  |
\*---------------------------------------------------------------------------*/
FoamFile
{
    format      ascii;
    class       volVectorField;
    location    "2.5";
    object      U;
}
// * * * * * * * * * * * * * * * * * * * * * * * * * * * * * * * * * * * * * //

dimensions      [0 1 -1 0 0 0 0];

internalField   nonuniform List<vector> 
1000
(
(0.13176 0 0)
(0.131702 0 0)
(0.131761 0 0)
(0.131699 0 0)
(0.131762 0 0)
(0.131696 0 0)
(0.131763 0 0)
(0.131694 0 0)
(0.131764 0 0)
(0.131691 0 0)
(0.131764 0 0)
(0.131688 0 0)
(0.131765 0 0)
(0.131685 0 0)
(0.131766 0 0)
(0.131681 0 0)
(0.131766 0 0)
(0.131678 0 0)
(0.131767 0 0)
(0.131675 0 0)
(0.131767 0 0)
(0.131671 0 0)
(0.131767 0 0)
(0.131668 0 0)
(0.131767 0 0)
(0.131665 0 0)
(0.131767 0 0)
(0.131661 0 0)
(0.131767 0 0)
(0.131658 0 0)
(0.131766 0 0)
(0.131655 0 0)
(0.131766 0 0)
(0.131651 0 0)
(0.131765 0 0)
(0.131648 0 0)
(0.131764 0 0)
(0.131645 0 0)
(0.131764 0 0)
(0.131643 0 0)
(0.131763 0 0)
(0.13164 0 0)
(0.131762 0 0)
(0.131638 0 0)
(0.131761 0 0)
(0.131636 0 0)
(0.13176 0 0)
(0.131635 0 0)
(0.131759 0 0)
(0.131634 0 0)
(0.131759 0 0)
(0.131633 0 0)
(0.131758 0 0)
(0.131633 0 0)
(0.131758 0 0)
(0.131634 0 0)
(0.131758 0 0)
(0.131635 0 0)
(0.131758 0 0)
(0.131637 0 0)
(0.131759 0 0)
(0.13164 0 0)
(0.131761 0 0)
(0.131644 0 0)
(0.131763 0 0)
(0.131649 0 0)
(0.131765 0 0)
(0.131654 0 0)
(0.131769 0 0)
(0.131662 0 0)
(0.131774 0 0)
(0.13167 0 0)
(0.131779 0 0)
(0.13168 0 0)
(0.131786 0 0)
(0.131691 0 0)
(0.131795 0 0)
(0.131704 0 0)
(0.131804 0 0)
(0.131718 0 0)
(0.131816 0 0)
(0.131734 0 0)
(0.131829 0 0)
(0.131752 0 0)
(0.131846 0 0)
(0.131768 0 0)
(0.131869 0 0)
(0.131781 0 0)
(0.131904 0 0)
(0.131783 0 0)
(0.131959 0 0)
(0.131769 0 0)
(0.132038 0 0)
(0.131749 0 0)
(0.132127 0 0)
(0.131763 0 0)
(0.132193 0 0)
(0.131859 0 0)
(0.132225 0 0)
(0.132031 0 0)
(0.132282 0 0)
(0.132206 0 0)
(0.132389 0 0)
(0.132353 0 0)
(0.132508 0 0)
(0.132475 0 0)
(0.132612 0 0)
(0.132571 0 0)
(0.13269 0 0)
(0.132644 0 0)
(0.132747 0 0)
(0.1327 0 0)
(0.13279 0 0)
(0.132744 0 0)
(0.132826 0 0)
(0.132784 0 0)
(0.132859 0 0)
(0.132822 0 0)
(0.132892 0 0)
(0.132861 0 0)
(0.132926 0 0)
(0.132901 0 0)
(0.132962 0 0)
(0.132942 0 0)
(0.133 0 0)
(0.132985 0 0)
(0.133039 0 0)
(0.13303 0 0)
(0.13308 0 0)
(0.133075 0 0)
(0.133123 0 0)
(0.133122 0 0)
(0.133167 0 0)
(0.13317 0 0)
(0.133213 0 0)
(0.133219 0 0)
(0.13326 0 0)
(0.133269 0 0)
(0.133308 0 0)
(0.13332 0 0)
(0.133356 0 0)
(0.133371 0 0)
(0.133406 0 0)
(0.133423 0 0)
(0.133456 0 0)
(0.133475 0 0)
(0.133506 0 0)
(0.133527 0 0)
(0.133556 0 0)
(0.133579 0 0)
(0.133607 0 0)
(0.133631 0 0)
(0.133657 0 0)
(0.133682 0 0)
(0.133707 0 0)
(0.133733 0 0)
(0.133757 0 0)
(0.133782 0 0)
(0.133805 0 0)
(0.133831 0 0)
(0.133853 0 0)
(0.133879 0 0)
(0.133899 0 0)
(0.133925 0 0)
(0.133944 0 0)
(0.13397 0 0)
(0.133988 0 0)
(0.134013 0 0)
(0.13403 0 0)
(0.134054 0 0)
(0.13407 0 0)
(0.134093 0 0)
(0.134107 0 0)
(0.13413 0 0)
(0.134143 0 0)
(0.134164 0 0)
(0.134176 0 0)
(0.134196 0 0)
(0.134207 0 0)
(0.134225 0 0)
(0.134235 0 0)
(0.134252 0 0)
(0.13426 0 0)
(0.134275 0 0)
(0.134281 0 0)
(0.134296 0 0)
(0.134299 0 0)
(0.134314 0 0)
(0.134314 0 0)
(0.134329 0 0)
(0.134324 0 0)
(0.13434 0 0)
(0.134332 0 0)
(0.134347 0 0)
(0.134339 0 0)
(0.134349 0 0)
(0.134343 0 0)
(0.13435 0 0)
(0.134347 0 0)
(0.134355 0 0)
(0.134354 0 0)
(0.134363 0 0)
(0.134359 0 0)
(0.134351 0 0)
(0.134314 0 0)
(0.134257 0 0)
(0.134169 0 0)
(0.134075 0 0)
(0.133974 0 0)
(0.133892 0 0)
(0.13382 0 0)
(0.133772 0 0)
(0.133732 0 0)
(0.133709 0 0)
(0.133688 0 0)
(0.133676 0 0)
(0.133663 0 0)
(0.133654 0 0)
(0.133642 0 0)
(0.133634 0 0)
(0.133622 0 0)
(0.133612 0 0)
(0.133599 0 0)
(0.133588 0 0)
(0.133574 0 0)
(0.133562 0 0)
(0.133546 0 0)
(0.133533 0 0)
(0.133516 0 0)
(0.133502 0 0)
(0.133484 0 0)
(0.133468 0 0)
(0.13345 0 0)
(0.133432 0 0)
(0.133413 0 0)
(0.133395 0 0)
(0.133375 0 0)
(0.133355 0 0)
(0.133335 0 0)
(0.133314 0 0)
(0.133293 0 0)
(0.133272 0 0)
(0.13325 0 0)
(0.133228 0 0)
(0.133205 0 0)
(0.133183 0 0)
(0.13316 0 0)
(0.133137 0 0)
(0.133113 0 0)
(0.13309 0 0)
(0.133066 0 0)
(0.133042 0 0)
(0.133018 0 0)
(0.132994 0 0)
(0.13297 0 0)
(0.132946 0 0)
(0.132922 0 0)
(0.132898 0 0)
(0.132873 0 0)
(0.132849 0 0)
(0.132825 0 0)
(0.132801 0 0)
(0.132777 0 0)
(0.132753 0 0)
(0.132729 0 0)
(0.132705 0 0)
(0.132681 0 0)
(0.132658 0 0)
(0.132635 0 0)
(0.132612 0 0)
(0.132589 0 0)
(0.132566 0 0)
(0.132544 0 0)
(0.132522 0 0)
(0.1325 0 0)
(0.132478 0 0)
(0.132457 0 0)
(0.132436 0 0)
(0.132415 0 0)
(0.132394 0 0)
(0.132374 0 0)
(0.132355 0 0)
(0.132335 0 0)
(0.132316 0 0)
(0.132297 0 0)
(0.132279 0 0)
(0.132261 0 0)
(0.132243 0 0)
(0.132226 0 0)
(0.132209 0 0)
(0.132192 0 0)
(0.132176 0 0)
(0.13216 0 0)
(0.132145 0 0)
(0.132129 0 0)
(0.132115 0 0)
(0.1321 0 0)
(0.132086 0 0)
(0.132073 0 0)
(0.13206 0 0)
(0.132047 0 0)
(0.132034 0 0)
(0.132022 0 0)
(0.13201 0 0)
(0.131999 0 0)
(0.131988 0 0)
(0.131977 0 0)
(0.131967 0 0)
(0.131957 0 0)
(0.131947 0 0)
(0.131938 0 0)
(0.131929 0 0)
(0.13192 0 0)
(0.131912 0 0)
(0.131904 0 0)
(0.131896 0 0)
(0.131888 0 0)
(0.131881 0 0)
(0.131874 0 0)
(0.131867 0 0)
(0.131861 0 0)
(0.131855 0 0)
(0.131849 0 0)
(0.131843 0 0)
(0.131838 0 0)
(0.131833 0 0)
(0.131828 0 0)
(0.131823 0 0)
(0.131818 0 0)
(0.131814 0 0)
(0.13181 0 0)
(0.131806 0 0)
(0.131802 0 0)
(0.131799 0 0)
(0.131795 0 0)
(0.131792 0 0)
(0.131789 0 0)
(0.131786 0 0)
(0.131783 0 0)
(0.13178 0 0)
(0.131778 0 0)
(0.131776 0 0)
(0.131773 0 0)
(0.131771 0 0)
(0.131769 0 0)
(0.131767 0 0)
(0.131765 0 0)
(0.131764 0 0)
(0.131762 0 0)
(0.13176 0 0)
(0.131759 0 0)
(0.131758 0 0)
(0.131756 0 0)
(0.131755 0 0)
(0.131754 0 0)
(0.131753 0 0)
(0.131752 0 0)
(0.131751 0 0)
(0.13175 0 0)
(0.131749 0 0)
(0.131748 0 0)
(0.131748 0 0)
(0.131747 0 0)
(0.131746 0 0)
(0.131746 0 0)
(0.131745 0 0)
(0.131745 0 0)
(0.131744 0 0)
(0.131744 0 0)
(0.131743 0 0)
(0.131743 0 0)
(0.131743 0 0)
(0.131742 0 0)
(0.131742 0 0)
(0.131742 0 0)
(0.131741 0 0)
(0.131741 0 0)
(0.131741 0 0)
(0.131741 0 0)
(0.13174 0 0)
(0.13174 0 0)
(0.13174 0 0)
(0.13174 0 0)
(0.13174 0 0)
(0.13174 0 0)
(0.131739 0 0)
(0.131739 0 0)
(0.131739 0 0)
(0.131739 0 0)
(0.131739 0 0)
(0.131739 0 0)
(0.131739 0 0)
(0.131739 0 0)
(0.131739 0 0)
(0.131739 0 0)
(0.131739 0 0)
(0.131739 0 0)
(0.131738 0 0)
(0.131738 0 0)
(0.131738 0 0)
(0.131738 0 0)
(0.131738 0 0)
(0.131738 0 0)
(0.131738 0 0)
(0.131738 0 0)
(0.131738 0 0)
(0.131738 0 0)
(0.131738 0 0)
(0.131738 0 0)
(0.131738 0 0)
(0.131738 0 0)
(0.131738 0 0)
(0.131738 0 0)
(0.131738 0 0)
(0.131738 0 0)
(0.131738 0 0)
(0.131738 0 0)
(0.131738 0 0)
(0.131738 0 0)
(0.131738 0 0)
(0.131738 0 0)
(0.131738 0 0)
(0.131738 0 0)
(0.131738 0 0)
(0.131738 0 0)
(0.131738 0 0)
(0.131738 0 0)
(0.131738 0 0)
(0.131738 0 0)
(0.131738 0 0)
(0.131738 0 0)
(0.131738 0 0)
(0.131738 0 0)
(0.131738 0 0)
(0.131738 0 0)
(0.131738 0 0)
(0.131738 0 0)
(0.131738 0 0)
(0.131738 0 0)
(0.131738 0 0)
(0.131738 0 0)
(0.131738 0 0)
(0.131738 0 0)
(0.131738 0 0)
(0.131738 0 0)
(0.131738 0 0)
(0.131738 0 0)
(0.131738 0 0)
(0.131738 0 0)
(0.131738 0 0)
(0.131738 0 0)
(0.131738 0 0)
(0.131738 0 0)
(0.131738 0 0)
(0.131738 0 0)
(0.131738 0 0)
(0.131738 0 0)
(0.131738 0 0)
(0.131738 0 0)
(0.131738 0 0)
(0.131738 0 0)
(0.131738 0 0)
(0.131738 0 0)
(0.131738 0 0)
(0.131738 0 0)
(0.131738 0 0)
(0.131738 0 0)
(0.131738 0 0)
(0.131738 0 0)
(0.131738 0 0)
(0.131738 0 0)
(0.131738 0 0)
(0.131738 0 0)
(0.131738 0 0)
(0.131738 0 0)
(0.131738 0 0)
(0.131738 0 0)
(0.131738 0 0)
(0.131738 0 0)
(0.131738 0 0)
(0.131738 0 0)
(0.131738 0 0)
(0.131738 0 0)
(0.131738 0 0)
(0.131738 0 0)
(0.131738 0 0)
(0.131738 0 0)
(0.131738 0 0)
(0.131738 0 0)
(0.131738 0 0)
(0.131738 0 0)
(0.131738 0 0)
(0.131738 0 0)
(0.131738 0 0)
(0.131738 0 0)
(0.131738 0 0)
(0.131738 0 0)
(0.131738 0 0)
(0.131738 0 0)
(0.131738 0 0)
(0.131738 0 0)
(0.131738 0 0)
(0.131738 0 0)
(0.131738 0 0)
(0.131738 0 0)
(0.131738 0 0)
(0.131738 0 0)
(0.131738 0 0)
(0.131738 0 0)
(0.131738 0 0)
(0.131738 0 0)
(0.131738 0 0)
(0.131738 0 0)
(0.131738 0 0)
(0.131738 0 0)
(0.131738 0 0)
(0.131738 0 0)
(0.131738 0 0)
(0.131738 0 0)
(0.131738 0 0)
(0.131738 0 0)
(0.131738 0 0)
(0.131738 0 0)
(0.131738 0 0)
(0.131738 0 0)
(0.131738 0 0)
(0.131738 0 0)
(0.131738 0 0)
(0.131738 0 0)
(0.131738 0 0)
(0.131738 0 0)
(0.131738 0 0)
(0.131738 0 0)
(0.131738 0 0)
(0.131738 0 0)
(0.131738 0 0)
(0.131738 0 0)
(0.131738 0 0)
(0.131738 0 0)
(0.131738 0 0)
(0.131738 0 0)
(0.131738 0 0)
(0.131738 0 0)
(0.131738 0 0)
(0.131738 0 0)
(0.131738 0 0)
(0.131738 0 0)
(0.131738 0 0)
(0.131738 0 0)
(0.131738 0 0)
(0.131738 0 0)
(0.131738 0 0)
(0.131738 0 0)
(0.131738 0 0)
(0.131738 0 0)
(0.131738 0 0)
(0.131738 0 0)
(0.131738 0 0)
(0.131738 0 0)
(0.131738 0 0)
(0.131738 0 0)
(0.131738 0 0)
(0.131738 0 0)
(0.131738 0 0)
(0.131738 0 0)
(0.131738 0 0)
(0.131738 0 0)
(0.131738 0 0)
(0.131738 0 0)
(0.131738 0 0)
(0.131738 0 0)
(0.131738 0 0)
(0.131738 0 0)
(0.131738 0 0)
(0.131738 0 0)
(0.131738 0 0)
(0.131738 0 0)
(0.131738 0 0)
(0.131738 0 0)
(0.131738 0 0)
(0.131738 0 0)
(0.131738 0 0)
(0.131738 0 0)
(0.131738 0 0)
(0.131738 0 0)
(0.131738 0 0)
(0.131738 0 0)
(0.131738 0 0)
(0.131738 0 0)
(0.131738 0 0)
(0.131738 0 0)
(0.131738 0 0)
(0.131738 0 0)
(0.131738 0 0)
(0.131738 0 0)
(0.131738 0 0)
(0.131738 0 0)
(0.131738 0 0)
(0.131738 0 0)
(0.131738 0 0)
(0.131738 0 0)
(0.131738 0 0)
(0.131738 0 0)
(0.131738 0 0)
(0.131738 0 0)
(0.131738 0 0)
(0.131738 0 0)
(0.131738 0 0)
(0.131738 0 0)
(0.131738 0 0)
(0.131738 0 0)
(0.131738 0 0)
(0.131738 0 0)
(0.131738 0 0)
(0.131738 0 0)
(0.131738 0 0)
(0.131738 0 0)
(0.131738 0 0)
(0.131738 0 0)
(0.131738 0 0)
(0.131738 0 0)
(0.131738 0 0)
(0.131738 0 0)
(0.131738 0 0)
(0.131738 0 0)
(0.131738 0 0)
(0.131738 0 0)
(0.131738 0 0)
(0.131738 0 0)
(0.131738 0 0)
(0.131738 0 0)
(0.131738 0 0)
(0.131738 0 0)
(0.131738 0 0)
(0.131738 0 0)
(0.131738 0 0)
(0.131738 0 0)
(0.131738 0 0)
(0.131738 0 0)
(0.131738 0 0)
(0.131738 0 0)
(0.131738 0 0)
(0.131738 0 0)
(0.131738 0 0)
(0.131738 0 0)
(0.131738 0 0)
(0.131738 0 0)
(0.131738 0 0)
(0.131738 0 0)
(0.131738 0 0)
(0.131738 0 0)
(0.131738 0 0)
(0.131738 0 0)
(0.131738 0 0)
(0.131738 0 0)
(0.131738 0 0)
(0.131738 0 0)
(0.131738 0 0)
(0.131738 0 0)
(0.131738 0 0)
(0.131738 0 0)
(0.131738 0 0)
(0.131738 0 0)
(0.131738 0 0)
(0.131738 0 0)
(0.131738 0 0)
(0.131738 0 0)
(0.131738 0 0)
(0.131738 0 0)
(0.131738 0 0)
(0.131738 0 0)
(0.131738 0 0)
(0.131738 0 0)
(0.131738 0 0)
(0.131738 0 0)
(0.131738 0 0)
(0.131738 0 0)
(0.131738 0 0)
(0.131738 0 0)
(0.131738 0 0)
(0.131738 0 0)
(0.131738 0 0)
(0.131738 0 0)
(0.131738 0 0)
(0.131738 0 0)
(0.131738 0 0)
(0.131738 0 0)
(0.131738 0 0)
(0.131738 0 0)
(0.131738 0 0)
(0.131738 0 0)
(0.131738 0 0)
(0.131738 0 0)
(0.131738 0 0)
(0.131738 0 0)
(0.131738 0 0)
(0.131738 0 0)
(0.131738 0 0)
(0.131738 0 0)
(0.131738 0 0)
(0.131738 0 0)
(0.131738 0 0)
(0.131738 0 0)
(0.131738 0 0)
(0.131738 0 0)
(0.131738 0 0)
(0.131738 0 0)
(0.131738 0 0)
(0.131738 0 0)
(0.131738 0 0)
(0.131738 0 0)
(0.131738 0 0)
(0.131738 0 0)
(0.131738 0 0)
(0.131738 0 0)
(0.131738 0 0)
(0.131738 0 0)
(0.131738 0 0)
(0.131738 0 0)
(0.131738 0 0)
(0.131738 0 0)
(0.131738 0 0)
(0.131738 0 0)
(0.131738 0 0)
(0.131738 0 0)
(0.131738 0 0)
(0.131738 0 0)
(0.131738 0 0)
(0.131738 0 0)
(0.131738 0 0)
(0.131738 0 0)
(0.131738 0 0)
(0.131738 0 0)
(0.131738 0 0)
(0.131738 0 0)
(0.131738 0 0)
(0.131738 0 0)
(0.131738 0 0)
(0.131738 0 0)
(0.131738 0 0)
(0.131738 0 0)
(0.131738 0 0)
(0.131738 0 0)
(0.131738 0 0)
(0.131738 0 0)
(0.131738 0 0)
(0.131738 0 0)
(0.131738 0 0)
(0.131738 0 0)
(0.131738 0 0)
(0.131738 0 0)
(0.131738 0 0)
(0.131738 0 0)
(0.131738 0 0)
(0.131738 0 0)
(0.131738 0 0)
(0.131738 0 0)
(0.131738 0 0)
(0.131738 0 0)
(0.131738 0 0)
(0.131738 0 0)
(0.131738 0 0)
(0.131738 0 0)
(0.131738 0 0)
(0.131738 0 0)
(0.131738 0 0)
(0.131738 0 0)
(0.131738 0 0)
(0.131738 0 0)
(0.131738 0 0)
(0.131738 0 0)
(0.131738 0 0)
(0.131738 0 0)
(0.131738 0 0)
(0.131738 0 0)
(0.131738 0 0)
(0.131738 0 0)
(0.131738 0 0)
(0.131738 0 0)
(0.131738 0 0)
(0.131738 0 0)
(0.131738 0 0)
(0.131738 0 0)
(0.131738 0 0)
(0.131738 0 0)
(0.131738 0 0)
(0.131738 0 0)
(0.131738 0 0)
(0.131738 0 0)
(0.131738 0 0)
(0.131738 0 0)
(0.131738 0 0)
(0.131738 0 0)
(0.131738 0 0)
(0.131738 0 0)
(0.131738 0 0)
(0.131738 0 0)
(0.131738 0 0)
(0.131738 0 0)
(0.131738 0 0)
(0.131738 0 0)
(0.131738 0 0)
(0.131738 0 0)
(0.131738 0 0)
(0.131738 0 0)
(0.131738 0 0)
(0.131738 0 0)
(0.131738 0 0)
(0.131738 0 0)
(0.131738 0 0)
(0.131738 0 0)
(0.131738 0 0)
(0.131738 0 0)
(0.131738 0 0)
(0.131738 0 0)
(0.131738 0 0)
(0.131738 0 0)
(0.131738 0 0)
(0.131738 0 0)
(0.131738 0 0)
(0.131738 0 0)
(0.131738 0 0)
(0.131738 0 0)
(0.131738 0 0)
(0.131738 0 0)
(0.131738 0 0)
(0.131738 0 0)
(0.131738 0 0)
(0.131738 0 0)
(0.131738 0 0)
(0.131738 0 0)
(0.131738 0 0)
(0.131738 0 0)
(0.131738 0 0)
(0.131738 0 0)
(0.131738 0 0)
(0.131738 0 0)
(0.131738 0 0)
(0.131738 0 0)
(0.131738 0 0)
(0.131738 0 0)
(0.131738 0 0)
(0.131738 0 0)
(0.131738 0 0)
(0.131738 0 0)
(0.131738 0 0)
(0.131738 0 0)
(0.131738 0 0)
(0.131738 0 0)
(0.131738 0 0)
(0.131738 0 0)
(0.131738 0 0)
(0.131738 0 0)
(0.131738 0 0)
(0.131738 0 0)
(0.131738 0 0)
(0.131738 0 0)
(0.131738 0 0)
(0.131738 0 0)
(0.131738 0 0)
(0.131738 0 0)
(0.131738 0 0)
(0.131738 0 0)
(0.131738 0 0)
(0.131738 0 0)
(0.131738 0 0)
(0.131738 0 0)
(0.131738 0 0)
(0.131738 0 0)
(0.131738 0 0)
(0.131738 0 0)
(0.131738 0 0)
(0.131738 0 0)
(0.131738 0 0)
(0.131738 0 0)
(0.131738 0 0)
(0.131738 0 0)
(0.131738 0 0)
(0.131738 0 0)
(0.131738 0 0)
(0.131738 0 0)
(0.131738 0 0)
(0.131738 0 0)
(0.131738 0 0)
(0.131738 0 0)
(0.131738 0 0)
(0.131738 0 0)
(0.131738 0 0)
(0.131738 0 0)
(0.131738 0 0)
(0.131738 0 0)
(0.131738 0 0)
(0.131738 0 0)
(0.131738 0 0)
(0.131738 0 0)
(0.131738 0 0)
(0.131738 0 0)
(0.131738 0 0)
(0.131738 0 0)
(0.131738 0 0)
(0.131738 0 0)
(0.131738 0 0)
(0.131738 0 0)
(0.131738 0 0)
(0.131738 0 0)
(0.131738 0 0)
(0.131738 0 0)
(0.131738 0 0)
(0.131738 0 0)
(0.131738 0 0)
(0.131738 0 0)
(0.131738 0 0)
(0.131738 0 0)
(0.131738 0 0)
(0.131738 0 0)
(0.131738 0 0)
(0.131738 0 0)
(0.131738 0 0)
(0.131738 0 0)
(0.131738 0 0)
(0.131738 0 0)
(0.131738 0 0)
(0.131738 0 0)
(0.131738 0 0)
(0.131738 0 0)
(0.131737 0 0)
(0.131739 0 0)
(0.131737 0 0)
(0.131739 0 0)
(0.131737 0 0)
(0.131739 0 0)
(0.131737 0 0)
(0.131739 0 0)
(0.131737 0 0)
(0.131739 0 0)
(0.131737 0 0)
(0.131739 0 0)
(0.131737 0 0)
(0.131739 0 0)
(0.131737 0 0)
(0.131739 0 0)
(0.131736 0 0)
(0.13174 0 0)
(0.131736 0 0)
(0.13174 0 0)
(0.131736 0 0)
(0.13174 0 0)
(0.131735 0 0)
(0.13174 0 0)
(0.131735 0 0)
(0.131741 0 0)
(0.131735 0 0)
(0.131741 0 0)
(0.131734 0 0)
(0.131741 0 0)
(0.131734 0 0)
(0.131742 0 0)
(0.131733 0 0)
(0.131742 0 0)
(0.131733 0 0)
(0.131743 0 0)
(0.131732 0 0)
(0.131743 0 0)
(0.131732 0 0)
(0.131744 0 0)
(0.131731 0 0)
(0.131744 0 0)
(0.13173 0 0)
(0.131745 0 0)
(0.131729 0 0)
(0.131746 0 0)
(0.131728 0 0)
(0.131746 0 0)
(0.131727 0 0)
(0.131747 0 0)
(0.131726 0 0)
(0.131748 0 0)
(0.131725 0 0)
(0.131749 0 0)
(0.131723 0 0)
(0.13175 0 0)
(0.131722 0 0)
(0.131751 0 0)
(0.13172 0 0)
(0.131752 0 0)
(0.131719 0 0)
(0.131753 0 0)
(0.131717 0 0)
(0.131754 0 0)
(0.131715 0 0)
(0.131755 0 0)
(0.131713 0 0)
(0.131756 0 0)
(0.131711 0 0)
(0.131757 0 0)
(0.131709 0 0)
(0.131758 0 0)
(0.131707 0 0)
(0.131759 0 0)
(0.131704 0 0)
)
;

boundaryField
{
    topWall
    {
        type            empty;
    }
    bottomWall
    {
        type            empty;
    }
    leftAndRight_half1
    {
        type            cyclic;
    }
    leftAndRight_half0
    {
        type            cyclic;
    }
    frontAndBack
    {
        type            empty;
    }
}


// ************************************************************************* //
