/*--------------------------------*- C++ -*----------------------------------*\
  =========                 |
  \\      /  F ield         | OpenFOAM: The Open Source CFD Toolbox
   \\    /   O peration     | Website:  https://openfoam.org
    \\  /    A nd           | Version:  9
     \\/     M anipulation  |
\*---------------------------------------------------------------------------*/
FoamFile
{
    format      ascii;
    class       volScalarField;
    location    "0.7";
    object      f_0;
}
// * * * * * * * * * * * * * * * * * * * * * * * * * * * * * * * * * * * * * //

dimensions      [1 -3 0 0 0 0 0];

internalField   nonuniform List<scalar> 
1000
(
666.667
666.667
666.667
666.667
666.667
666.667
666.667
666.667
666.667
666.667
666.667
666.667
666.667
666.667
666.667
666.667
666.667
666.667
666.667
666.667
666.667
666.667
666.667
666.667
666.667
666.667
666.667
666.667
666.667
666.667
666.667
666.667
666.667
666.667
666.667
666.667
666.667
666.667
666.667
666.667
666.667
666.667
666.667
666.667
666.667
666.667
666.667
666.667
666.667
666.667
666.667
666.667
666.667
666.667
666.667
666.667
666.667
666.667
666.667
666.667
666.667
666.667
666.667
666.667
666.667
666.667
666.667
666.667
666.667
666.667
666.667
666.667
666.667
666.667
666.667
666.667
666.667
666.667
666.667
666.667
666.667
666.667
666.667
666.667
666.667
666.667
666.667
666.667
666.667
666.667
666.667
666.667
666.667
666.667
666.667
666.667
666.667
666.667
666.667
666.667
666.667
666.667
666.667
666.667
666.667
666.667
666.667
666.667
666.667
666.667
666.667
666.667
666.667
666.667
666.667
666.667
666.667
666.667
666.667
666.667
666.667
666.667
666.667
666.667
666.667
666.667
666.667
666.667
666.667
666.667
666.667
666.667
666.667
666.667
666.667
666.667
666.667
666.667
666.667
666.667
666.667
666.667
666.667
666.667
666.667
666.667
666.667
666.667
666.667
666.667
666.667
666.667
666.667
666.667
666.667
666.667
666.667
666.667
666.667
666.667
666.667
666.667
666.667
666.667
666.667
666.667
666.667
666.667
666.667
666.667
666.667
666.666
666.666
666.666
666.666
666.666
666.666
666.666
666.666
666.666
666.666
666.666
666.666
666.666
666.666
666.666
666.666
666.666
666.666
666.666
666.666
666.666
666.666
666.666
666.666
666.666
666.666
666.666
666.666
666.666
666.666
666.666
666.666
666.666
666.666
666.666
666.666
666.666
666.666
666.666
666.666
666.666
666.666
666.666
666.666
666.666
666.666
666.666
666.666
666.666
666.666
666.666
666.665
666.665
666.665
666.665
666.665
666.665
666.665
666.665
666.665
666.665
666.665
666.665
666.665
666.665
666.665
666.665
666.665
666.665
666.665
666.664
666.664
666.664
666.664
666.664
666.664
666.664
666.664
666.664
666.664
666.664
666.664
666.664
666.663
666.663
666.663
666.663
666.663
666.663
666.663
666.663
666.663
666.662
666.662
666.662
666.662
666.662
666.662
666.662
666.662
666.661
666.661
666.661
666.661
666.661
666.661
666.661
666.66
666.66
666.66
666.66
666.66
666.66
666.659
666.659
666.659
666.659
666.659
666.659
666.658
666.658
666.658
666.658
666.658
666.657
666.657
666.657
666.657
666.656
666.656
666.656
666.656
666.656
666.655
666.655
666.655
666.655
666.654
666.654
666.654
666.654
666.653
666.653
666.653
666.652
666.652
666.652
666.652
666.651
666.651
666.651
666.65
666.65
666.65
666.649
666.649
666.649
666.648
666.648
666.648
666.647
666.647
666.647
666.646
666.646
666.646
666.645
666.645
666.645
666.644
666.644
666.644
666.643
666.643
666.642
666.642
666.642
666.641
666.641
666.641
666.64
666.64
666.639
666.639
666.639
666.638
666.638
666.637
666.637
666.636
666.636
666.636
666.635
666.635
666.634
666.634
666.634
666.633
666.633
666.632
666.632
666.631
666.631
666.63
666.63
666.63
666.629
666.629
666.628
666.628
666.627
666.627
666.626
666.626
666.626
666.625
666.625
666.624
666.624
666.623
666.623
666.622
666.622
666.621
666.621
666.621
666.62
666.62
666.619
666.619
666.618
666.618
666.617
666.617
666.616
666.616
666.616
666.615
666.615
666.614
666.614
666.613
666.613
666.612
666.612
666.611
666.611
666.611
666.61
666.61
666.609
666.609
666.608
666.608
666.607
666.607
666.607
666.606
666.606
666.605
666.605
666.604
666.604
666.604
666.603
666.603
666.602
666.602
666.601
666.601
666.601
666.6
666.6
666.599
666.599
666.599
666.598
666.598
666.597
666.597
666.597
666.596
666.596
666.595
666.595
666.595
666.594
666.594
666.593
666.593
666.593
666.592
666.592
666.592
666.591
666.591
666.59
666.59
666.59
666.589
666.589
666.589
666.588
666.588
666.588
666.587
666.587
666.587
666.586
666.586
666.586
666.585
666.585
666.585
666.584
666.584
666.584
666.583
666.583
666.583
666.582
666.582
666.582
666.581
666.581
666.581
666.58
666.58
666.58
666.58
666.579
666.579
666.579
666.578
666.578
666.578
666.578
666.577
666.577
666.577
666.576
666.576
666.576
666.576
666.575
666.575
666.575
666.575
666.574
666.574
666.574
666.574
666.573
666.573
666.573
666.573
666.572
666.572
666.572
666.572
666.571
666.571
666.571
666.571
666.57
666.57
666.57
666.57
666.57
666.569
666.569
666.569
666.569
666.569
666.568
666.568
666.568
666.568
666.568
666.567
666.567
666.567
666.567
666.567
666.566
666.566
666.566
666.566
666.566
666.565
666.565
666.565
666.565
666.565
666.565
666.564
666.564
666.564
666.564
666.564
666.564
666.563
666.563
666.563
666.563
666.563
666.563
666.563
666.562
666.562
666.562
666.562
666.562
666.562
666.562
666.562
666.561
666.561
666.561
666.561
666.561
666.561
666.561
666.561
666.56
666.56
666.56
666.56
666.56
666.56
666.56
666.56
666.56
666.56
666.559
666.559
666.559
666.559
666.559
666.559
666.559
666.559
666.559
666.559
666.559
666.559
666.559
666.558
666.558
666.558
666.558
666.558
666.558
666.558
666.558
666.558
666.558
666.558
666.558
666.558
666.558
666.558
666.558
666.558
666.558
666.558
666.558
666.558
666.558
666.558
666.558
666.558
666.558
666.558
666.558
666.559
666.559
666.559
666.559
666.559
666.559
666.559
666.559
666.559
666.56
666.56
666.56
666.56
666.56
666.561
666.561
666.561
666.561
666.561
666.562
666.562
666.562
666.563
666.563
666.563
666.564
666.564
666.565
666.565
666.565
666.566
666.566
666.567
666.567
666.568
666.569
666.569
666.57
666.571
666.571
666.572
666.573
666.574
666.575
666.576
666.577
666.578
666.579
666.58
666.581
666.582
666.583
666.585
666.586
666.587
666.589
666.59
666.592
666.594
666.595
666.597
666.599
666.601
666.603
666.606
666.608
666.61
666.613
666.615
666.618
666.621
666.624
666.627
666.63
666.633
666.637
666.64
666.644
666.648
666.652
666.656
666.66
666.665
666.669
666.674
666.679
666.684
666.69
666.695
666.701
666.707
666.713
666.719
666.726
666.733
666.74
666.747
666.754
666.762
666.77
666.777
666.786
666.794
666.803
666.811
666.82
666.829
666.838
666.848
666.857
666.867
666.877
666.887
666.897
666.907
666.917
666.927
666.937
666.947
666.957
666.966
666.976
666.986
666.995
667.005
667.014
667.023
667.031
667.04
667.047
667.055
667.062
667.069
667.075
667.081
667.087
667.091
667.096
667.1
667.103
667.105
667.108
667.109
667.11
667.11
667.11
667.109
667.108
667.106
667.103
667.1
667.097
667.093
667.088
667.083
667.077
667.072
667.065
667.059
667.052
667.044
667.037
667.029
667.021
667.013
667.005
666.996
666.988
666.979
666.97
666.962
666.953
666.944
666.936
666.927
666.919
666.91
666.902
666.894
666.886
666.878
666.87
666.863
666.855
666.848
666.841
666.834
666.827
666.821
666.814
666.808
666.802
666.796
666.791
666.785
666.78
666.775
666.77
666.766
666.761
666.757
666.753
666.749
666.745
666.741
666.737
666.734
666.731
666.728
666.725
666.722
666.719
666.717
666.714
666.712
666.709
666.707
666.705
666.703
666.701
666.7
666.698
666.696
666.695
666.693
666.692
666.691
666.689
666.688
666.687
666.686
666.685
666.684
666.683
666.682
666.681
666.68
666.68
666.679
666.678
666.678
666.677
666.676
666.676
666.675
666.675
666.674
666.674
666.674
666.673
666.673
666.672
666.672
666.672
666.672
666.671
666.671
666.671
666.67
666.67
666.67
666.67
666.67
666.669
666.669
666.669
666.669
666.669
666.669
666.669
666.669
666.668
666.668
666.668
666.668
666.668
666.668
666.668
666.668
666.668
666.668
666.668
666.668
666.667
666.667
666.667
666.667
666.667
666.667
666.667
666.667
666.667
666.667
666.667
666.667
666.667
666.667
666.667
666.667
666.667
666.667
666.667
666.667
666.667
666.667
666.667
666.667
666.667
666.667
666.667
666.667
666.667
666.667
666.667
666.667
666.667
666.667
666.667
666.667
666.667
666.667
666.667
666.667
666.667
666.667
666.667
666.667
666.667
666.667
666.667
666.667
666.667
666.667
666.667
666.667
666.667
666.667
666.667
666.667
666.667
666.667
666.667
666.667
666.667
666.667
666.667
666.667
666.667
666.667
666.667
666.667
666.667
666.667
666.667
)
;

boundaryField
{
    topWall
    {
        type            empty;
    }
    bottomWall
    {
        type            empty;
    }
    leftAndRight_half1
    {
        type            cyclic;
    }
    leftAndRight_half0
    {
        type            cyclic;
    }
    frontAndBack
    {
        type            empty;
    }
}


// ************************************************************************* //
