/*--------------------------------*- C++ -*----------------------------------*\
  =========                 |
  \\      /  F ield         | OpenFOAM: The Open Source CFD Toolbox
   \\    /   O peration     | Website:  https://openfoam.org
    \\  /    A nd           | Version:  9
     \\/     M anipulation  |
\*---------------------------------------------------------------------------*/
FoamFile
{
    format      ascii;
    class       volScalarField;
    location    "0.7";
    object      f_1;
}
// * * * * * * * * * * * * * * * * * * * * * * * * * * * * * * * * * * * * * //

dimensions      [1 -3 0 0 0 0 0];

internalField   nonuniform List<scalar> 
1000
(
168.881
168.881
168.881
168.881
168.881
168.881
168.881
168.881
168.881
168.881
168.881
168.881
168.881
168.881
168.881
168.881
168.881
168.881
168.881
168.881
168.881
168.881
168.881
168.881
168.881
168.881
168.881
168.881
168.881
168.881
168.881
168.881
168.881
168.881
168.881
168.881
168.881
168.881
168.881
168.881
168.881
168.881
168.881
168.881
168.881
168.881
168.881
168.881
168.881
168.881
168.881
168.881
168.881
168.881
168.881
168.881
168.881
168.881
168.881
168.881
168.881
168.881
168.881
168.881
168.881
168.881
168.881
168.881
168.881
168.881
168.881
168.881
168.881
168.881
168.881
168.881
168.881
168.881
168.881
168.881
168.881
168.881
168.881
168.881
168.881
168.881
168.881
168.881
168.881
168.881
168.881
168.881
168.881
168.881
168.881
168.881
168.881
168.881
168.881
168.881
168.881
168.881
168.881
168.881
168.881
168.881
168.881
168.881
168.881
168.881
168.881
168.881
168.881
168.881
168.881
168.881
168.881
168.881
168.881
168.881
168.881
168.881
168.881
168.881
168.881
168.881
168.881
168.881
168.881
168.881
168.881
168.881
168.881
168.881
168.881
168.882
168.882
168.882
168.882
168.882
168.882
168.882
168.882
168.882
168.882
168.882
168.882
168.882
168.882
168.882
168.882
168.882
168.882
168.882
168.882
168.882
168.882
168.882
168.882
168.882
168.882
168.882
168.882
168.882
168.882
168.883
168.883
168.883
168.883
168.883
168.883
168.883
168.883
168.883
168.883
168.883
168.883
168.884
168.884
168.884
168.884
168.884
168.884
168.884
168.884
168.885
168.885
168.885
168.885
168.885
168.885
168.886
168.886
168.886
168.886
168.886
168.887
168.887
168.887
168.887
168.887
168.888
168.888
168.888
168.889
168.889
168.889
168.89
168.89
168.89
168.891
168.891
168.891
168.892
168.892
168.893
168.893
168.894
168.894
168.895
168.895
168.896
168.896
168.897
168.897
168.898
168.899
168.899
168.9
168.901
168.901
168.902
168.903
168.904
168.905
168.906
168.906
168.907
168.908
168.909
168.91
168.911
168.912
168.914
168.915
168.916
168.917
168.918
168.92
168.921
168.922
168.924
168.925
168.927
168.928
168.93
168.932
168.933
168.935
168.937
168.939
168.941
168.943
168.945
168.947
168.949
168.951
168.953
168.956
168.958
168.96
168.963
168.965
168.968
168.971
168.974
168.976
168.979
168.982
168.985
168.989
168.992
168.995
168.999
169.002
169.006
169.009
169.013
169.017
169.021
169.025
169.029
169.033
169.038
169.042
169.047
169.051
169.056
169.061
169.066
169.071
169.076
169.081
169.087
169.092
169.098
169.104
169.11
169.116
169.122
169.128
169.135
169.141
169.148
169.155
169.162
169.169
169.176
169.184
169.191
169.199
169.207
169.215
169.223
169.231
169.24
169.248
169.257
169.266
169.275
169.284
169.294
169.303
169.313
169.323
169.333
169.344
169.354
169.365
169.376
169.387
169.398
169.409
169.421
169.433
169.445
169.457
169.469
169.482
169.494
169.507
169.52
169.534
169.547
169.561
169.575
169.589
169.604
169.618
169.633
169.648
169.663
169.678
169.694
169.71
169.726
169.742
169.759
169.775
169.792
169.809
169.827
169.844
169.862
169.88
169.899
169.917
169.936
169.955
169.974
169.993
170.013
170.033
170.053
170.073
170.094
170.114
170.136
170.157
170.178
170.2
170.222
170.244
170.267
170.289
170.312
170.335
170.359
170.382
170.406
170.43
170.454
170.479
170.504
170.529
170.554
170.58
170.605
170.631
170.657
170.684
170.711
170.738
170.765
170.792
170.82
170.848
170.876
170.904
170.933
170.961
170.99
171.02
171.049
171.079
171.109
171.139
171.169
171.2
171.231
171.262
171.294
171.325
171.357
171.389
171.421
171.454
171.486
171.519
171.552
171.586
171.619
171.653
171.687
171.722
171.756
171.791
171.826
171.861
171.896
171.932
171.968
172.004
172.04
172.076
172.113
172.15
172.187
172.224
172.262
172.299
172.337
172.375
172.414
172.452
172.491
172.53
172.569
172.608
172.648
172.688
172.728
172.768
172.808
172.848
172.889
172.93
172.971
173.012
173.054
173.096
173.137
173.179
173.222
173.264
173.307
173.349
173.392
173.435
173.479
173.522
173.566
173.61
173.654
173.698
173.742
173.787
173.832
173.876
173.921
173.967
174.012
174.058
174.103
174.149
174.195
174.241
174.288
174.334
174.381
174.428
174.475
174.522
174.569
174.617
174.665
174.712
174.76
174.808
174.857
174.905
174.953
175.002
175.051
175.1
175.149
175.198
175.248
175.297
175.347
175.397
175.447
175.497
175.547
175.598
175.648
175.699
175.749
175.8
175.851
175.903
175.954
176.005
176.057
176.109
176.16
176.212
176.264
176.317
176.369
176.421
176.474
176.527
176.579
176.632
176.685
176.739
176.792
176.845
176.899
176.952
177.006
177.06
177.114
177.168
177.222
177.276
177.331
177.385
177.44
177.494
177.549
177.604
177.659
177.714
177.769
177.825
177.88
177.936
177.991
178.047
178.103
178.159
178.215
178.271
178.327
178.383
178.439
178.496
178.552
178.609
178.666
178.722
178.779
178.836
178.893
178.95
179.008
179.065
179.122
179.18
179.237
179.295
179.352
179.41
179.468
179.526
179.584
179.642
179.7
179.758
179.816
179.874
179.932
179.991
180.049
180.108
180.166
180.225
180.284
180.342
180.401
180.46
180.519
180.577
180.636
180.695
180.754
180.813
180.872
180.932
180.991
181.05
181.109
181.168
181.228
181.287
181.346
181.405
181.465
181.524
181.583
181.643
181.702
181.761
181.82
181.88
181.939
181.998
182.057
182.117
182.176
182.235
182.294
182.353
182.412
182.471
182.53
182.588
182.647
182.706
182.764
182.823
182.881
182.939
182.997
183.055
183.113
183.171
183.229
183.286
183.343
183.4
183.457
183.514
183.57
183.627
183.683
183.739
183.794
183.849
183.904
183.959
184.013
184.067
184.121
184.174
184.227
184.28
184.332
184.383
184.434
184.485
184.535
184.585
184.634
184.682
184.73
184.777
184.824
184.869
184.914
184.959
185.002
185.044
185.086
185.127
185.167
185.205
185.243
185.279
185.315
185.349
185.382
185.413
185.443
185.472
185.499
185.525
185.549
185.571
185.591
185.61
185.627
185.642
185.654
185.665
185.673
185.679
185.682
185.683
185.682
185.677
185.67
185.66
185.647
185.631
185.611
185.589
185.563
185.533
185.499
185.462
185.421
185.376
185.327
185.274
185.216
185.154
185.087
185.016
184.94
184.859
184.773
184.682
184.587
184.486
184.379
184.268
184.151
184.029
183.901
183.768
183.629
183.485
183.336
183.181
183.021
182.855
182.685
182.509
182.328
182.142
181.952
181.757
181.557
181.354
181.146
180.934
180.719
180.5
180.278
180.054
179.826
179.597
179.365
179.132
178.897
178.661
178.425
178.188
177.951
177.714
177.477
177.241
177.007
176.774
176.542
176.313
176.086
175.861
175.639
175.42
175.204
174.992
174.783
174.578
174.376
174.179
173.986
173.798
173.613
173.433
173.258
173.087
172.921
172.759
172.602
172.45
172.302
172.159
172.021
171.887
171.757
171.632
171.511
171.395
171.283
171.175
171.071
170.97
170.874
170.782
170.693
170.608
170.526
170.448
170.373
170.301
170.232
170.166
170.103
170.043
169.985
169.93
169.877
169.827
169.78
169.734
169.69
169.649
169.609
169.572
169.536
169.502
169.469
169.438
169.409
169.381
169.355
169.329
169.305
169.283
169.261
169.241
169.221
169.203
169.185
169.168
169.153
169.138
169.124
169.11
169.097
169.085
169.074
169.063
169.053
169.043
169.034
169.026
169.017
169.01
169.002
168.995
168.989
168.983
168.977
168.971
168.966
168.961
168.956
168.952
168.948
168.944
168.94
168.937
168.934
168.93
168.928
168.925
168.922
168.92
168.917
168.915
168.913
168.911
168.909
168.908
168.906
168.905
168.903
168.902
168.901
168.899
168.898
168.897
168.896
168.895
168.894
168.894
168.893
168.892
168.891
168.891
168.89
168.89
168.889
168.889
168.888
168.888
168.887
168.887
168.887
168.886
168.886
168.886
168.885
168.885
168.885
168.885
168.884
168.884
168.884
168.884
168.884
168.883
168.883
168.883
168.883
168.883
168.883
168.883
168.883
168.882
168.882
168.882
168.882
168.882
168.882
168.882
168.882
168.882
168.882
168.882
168.882
168.882
168.882
168.882
168.882
168.882
168.882
168.882
168.882
168.882
168.881
168.881
168.881
168.881
168.881
168.881
168.881
168.881
168.881
168.881
168.881
168.881
168.881
168.881
168.881
168.881
168.881
168.881
168.881
168.881
168.881
168.881
168.881
168.881
168.881
)
;

boundaryField
{
    topWall
    {
        type            empty;
    }
    bottomWall
    {
        type            empty;
    }
    leftAndRight_half1
    {
        type            cyclic;
    }
    leftAndRight_half0
    {
        type            cyclic;
    }
    frontAndBack
    {
        type            empty;
    }
}


// ************************************************************************* //
