/*--------------------------------*- C++ -*----------------------------------*\
  =========                 |
  \\      /  F ield         | OpenFOAM: The Open Source CFD Toolbox
   \\    /   O peration     | Website:  https://openfoam.org
    \\  /    A nd           | Version:  9
     \\/     M anipulation  |
\*---------------------------------------------------------------------------*/
FoamFile
{
    format      ascii;
    class       volScalarField;
    location    "0.7";
    object      f_2;
}
// * * * * * * * * * * * * * * * * * * * * * * * * * * * * * * * * * * * * * //

dimensions      [1 -3 0 0 0 0 0];

internalField   nonuniform List<scalar> 
1000
(
164.481
164.481
164.481
164.481
164.481
164.481
164.481
164.481
164.481
164.481
164.481
164.481
164.481
164.481
164.481
164.481
164.481
164.481
164.481
164.481
164.481
164.481
164.481
164.481
164.481
164.481
164.481
164.481
164.481
164.481
164.481
164.481
164.481
164.481
164.481
164.481
164.481
164.481
164.481
164.481
164.481
164.481
164.481
164.481
164.481
164.481
164.481
164.481
164.481
164.481
164.481
164.481
164.481
164.481
164.481
164.481
164.481
164.481
164.481
164.481
164.481
164.481
164.481
164.481
164.481
164.481
164.481
164.481
164.481
164.481
164.481
164.481
164.481
164.481
164.481
164.481
164.481
164.481
164.481
164.481
164.481
164.481
164.481
164.481
164.481
164.481
164.481
164.481
164.481
164.481
164.481
164.481
164.481
164.481
164.481
164.481
164.481
164.481
164.481
164.481
164.481
164.481
164.481
164.481
164.481
164.481
164.481
164.481
164.481
164.481
164.481
164.481
164.481
164.481
164.481
164.481
164.481
164.481
164.481
164.481
164.481
164.481
164.481
164.481
164.481
164.481
164.481
164.481
164.481
164.481
164.481
164.481
164.481
164.481
164.481
164.481
164.481
164.481
164.481
164.481
164.481
164.481
164.481
164.481
164.481
164.481
164.481
164.481
164.481
164.48
164.48
164.48
164.48
164.48
164.48
164.48
164.48
164.48
164.48
164.48
164.48
164.48
164.48
164.48
164.48
164.48
164.48
164.48
164.479
164.479
164.479
164.479
164.479
164.479
164.479
164.479
164.479
164.479
164.478
164.478
164.478
164.478
164.478
164.478
164.478
164.478
164.477
164.477
164.477
164.477
164.477
164.476
164.476
164.476
164.476
164.476
164.475
164.475
164.475
164.475
164.474
164.474
164.474
164.473
164.473
164.473
164.472
164.472
164.472
164.471
164.471
164.471
164.47
164.47
164.469
164.469
164.468
164.468
164.467
164.467
164.466
164.466
164.465
164.464
164.464
164.463
164.462
164.462
164.461
164.46
164.459
164.459
164.458
164.457
164.456
164.455
164.454
164.453
164.452
164.451
164.45
164.449
164.448
164.447
164.445
164.444
164.443
164.442
164.44
164.439
164.437
164.436
164.434
164.433
164.431
164.429
164.428
164.426
164.424
164.422
164.42
164.418
164.416
164.414
164.412
164.41
164.407
164.405
164.403
164.4
164.398
164.395
164.392
164.39
164.387
164.384
164.381
164.378
164.375
164.372
164.368
164.365
164.362
164.358
164.354
164.351
164.347
164.343
164.339
164.335
164.331
164.326
164.322
164.318
164.313
164.308
164.304
164.299
164.294
164.289
164.283
164.278
164.273
164.267
164.261
164.255
164.249
164.243
164.237
164.231
164.224
164.218
164.211
164.204
164.197
164.19
164.183
164.175
164.168
164.16
164.152
164.144
164.136
164.128
164.119
164.111
164.102
164.093
164.084
164.075
164.065
164.056
164.046
164.036
164.026
164.016
164.005
163.995
163.984
163.973
163.962
163.951
163.939
163.927
163.915
163.903
163.891
163.879
163.866
163.853
163.84
163.827
163.814
163.8
163.786
163.772
163.758
163.744
163.729
163.714
163.699
163.684
163.669
163.653
163.637
163.621
163.605
163.589
163.572
163.555
163.538
163.521
163.503
163.486
163.468
163.45
163.431
163.413
163.394
163.375
163.356
163.336
163.317
163.297
163.277
163.257
163.236
163.215
163.194
163.173
163.152
163.13
163.108
163.086
163.064
163.041
163.019
162.996
162.973
162.949
162.926
162.902
162.878
162.854
162.829
162.804
162.779
162.754
162.729
162.703
162.678
162.652
162.625
162.599
162.572
162.545
162.518
162.491
162.464
162.436
162.408
162.38
162.351
162.323
162.294
162.265
162.236
162.207
162.177
162.147
162.117
162.087
162.057
162.026
161.995
161.964
161.933
161.901
161.87
161.838
161.806
161.774
161.741
161.709
161.676
161.643
161.61
161.576
161.543
161.509
161.475
161.441
161.407
161.372
161.338
161.303
161.268
161.233
161.197
161.162
161.126
161.09
161.054
161.018
160.981
160.945
160.908
160.871
160.834
160.796
160.759
160.721
160.684
160.646
160.608
160.569
160.531
160.492
160.454
160.415
160.376
160.337
160.297
160.258
160.218
160.178
160.139
160.098
160.058
160.018
159.977
159.937
159.896
159.855
159.814
159.773
159.732
159.69
159.648
159.607
159.565
159.523
159.481
159.439
159.396
159.354
159.311
159.268
159.226
159.183
159.139
159.096
159.053
159.009
158.966
158.922
158.878
158.835
158.791
158.746
158.702
158.658
158.613
158.569
158.524
158.479
158.435
158.39
158.345
158.299
158.254
158.209
158.163
158.118
158.072
158.026
157.981
157.935
157.889
157.843
157.796
157.75
157.704
157.657
157.611
157.564
157.517
157.471
157.424
157.377
157.33
157.283
157.236
157.188
157.141
157.094
157.046
156.999
156.951
156.903
156.856
156.808
156.76
156.712
156.664
156.616
156.568
156.52
156.471
156.423
156.375
156.326
156.278
156.229
156.18
156.132
156.083
156.034
155.985
155.936
155.888
155.839
155.789
155.74
155.691
155.642
155.593
155.544
155.494
155.445
155.395
155.346
155.297
155.247
155.197
155.148
155.098
155.049
154.999
154.949
154.899
154.849
154.8
154.75
154.7
154.65
154.6
154.55
154.5
154.45
154.4
154.35
154.3
154.25
154.2
154.15
154.1
154.049
153.999
153.949
153.899
153.849
153.799
153.748
153.698
153.648
153.598
153.548
153.498
153.447
153.397
153.347
153.297
153.247
153.197
153.147
153.097
153.047
152.997
152.947
152.897
152.847
152.797
152.748
152.698
152.648
152.598
152.549
152.499
152.45
152.4
152.351
152.302
152.253
152.204
152.155
152.106
152.057
152.008
151.959
151.911
151.863
151.814
151.766
151.718
151.67
151.623
151.575
151.528
151.48
151.433
151.387
151.34
151.293
151.247
151.201
151.156
151.11
151.065
151.02
150.975
150.931
150.887
150.843
150.799
150.756
150.714
150.671
150.629
150.588
150.547
150.506
150.466
150.426
150.387
150.349
150.311
150.273
150.236
150.2
150.165
150.13
150.096
150.063
150.03
149.999
149.968
149.938
149.909
149.881
149.854
149.828
149.803
149.78
149.757
149.736
149.716
149.698
149.68
149.665
149.651
149.638
149.627
149.618
149.611
149.605
149.602
149.6
149.6
149.603
149.608
149.615
149.624
149.637
149.651
149.668
149.688
149.711
149.737
149.766
149.797
149.832
149.871
149.912
149.958
150.006
150.059
150.115
150.175
150.239
150.307
150.38
150.456
150.536
150.621
150.711
150.805
150.903
151.006
151.113
151.225
151.342
151.464
151.59
151.72
151.856
151.996
152.14
152.289
152.443
152.6
152.763
152.929
153.099
153.273
153.451
153.632
153.817
154.005
154.196
154.39
154.587
154.785
154.986
155.189
155.393
155.599
155.805
156.013
156.221
156.429
156.637
156.845
157.052
157.259
157.464
157.668
157.87
158.07
158.269
158.465
158.658
158.849
159.037
159.222
159.404
159.582
159.757
159.928
160.096
160.259
160.419
160.575
160.727
160.875
161.019
161.158
161.294
161.426
161.553
161.677
161.796
161.912
162.023
162.131
162.235
162.335
162.432
162.525
162.614
162.7
162.783
162.862
162.939
163.012
163.082
163.149
163.213
163.275
163.334
163.39
163.444
163.496
163.545
163.592
163.637
163.68
163.72
163.759
163.796
163.832
163.865
163.897
163.928
163.957
163.985
164.011
164.036
164.059
164.082
164.103
164.124
164.143
164.161
164.179
164.195
164.211
164.226
164.24
164.253
164.266
164.278
164.289
164.3
164.31
164.32
164.329
164.337
164.345
164.353
164.36
164.367
164.374
164.38
164.386
164.391
164.397
164.401
164.406
164.41
164.415
164.418
164.422
164.426
164.429
164.432
164.435
164.438
164.44
164.443
164.445
164.447
164.449
164.451
164.453
164.455
164.456
164.458
164.459
164.461
164.462
164.463
164.464
164.465
164.466
164.467
164.468
164.469
164.47
164.47
164.471
164.472
164.472
164.473
164.473
164.474
164.474
164.475
164.475
164.475
164.476
164.476
164.477
164.477
164.477
164.477
164.478
164.478
164.478
164.478
164.478
164.479
164.479
164.479
164.479
164.479
164.479
164.479
164.48
164.48
164.48
164.48
164.48
164.48
164.48
164.48
164.48
164.48
164.48
164.48
164.48
164.481
164.481
164.481
164.481
164.481
164.481
164.481
164.481
164.481
164.481
164.481
164.481
164.481
164.481
164.481
164.481
164.481
164.481
164.481
164.481
164.481
164.481
164.481
164.481
164.481
164.481
164.481
164.481
164.481
164.481
164.481
164.481
164.481
164.481
164.481
164.481
164.481
164.481
164.481
)
;

boundaryField
{
    topWall
    {
        type            empty;
    }
    bottomWall
    {
        type            empty;
    }
    leftAndRight_half1
    {
        type            cyclic;
    }
    leftAndRight_half0
    {
        type            cyclic;
    }
    frontAndBack
    {
        type            empty;
    }
}


// ************************************************************************* //
