/*--------------------------------*- C++ -*----------------------------------*\
  =========                 |
  \\      /  F ield         | OpenFOAM: The Open Source CFD Toolbox
   \\    /   O peration     | Website:  https://openfoam.org
    \\  /    A nd           | Version:  9
     \\/     M anipulation  |
\*---------------------------------------------------------------------------*/
FoamFile
{
    format      ascii;
    class       volScalarField;
    location    "0.7";
    object      p;
}
// * * * * * * * * * * * * * * * * * * * * * * * * * * * * * * * * * * * * * //

dimensions      [1 -1 -2 0 0 0 0];

internalField   nonuniform List<scalar> 
1000
(
100097
100097
100097
100097
100097
100097
100097
100097
100097
100097
100097
100097
100097
100097
100097
100097
100097
100097
100097
100097
100097
100097
100097
100097
100097
100097
100097
100097
100097
100097
100097
100097
100097
100097
100097
100097
100097
100097
100097
100097
100097
100097
100097
100097
100097
100097
100097
100097
100097
100097
100097
100097
100097
100097
100097
100097
100097
100097
100097
100097
100097
100097
100097
100097
100097
100097
100097
100097
100097
100097
100097
100097
100097
100097
100097
100097
100097
100097
100097
100097
100097
100097
100097
100097
100097
100097
100097
100097
100097
100097
100097
100097
100097
100097
100097
100097
100097
100097
100097
100097
100097
100097
100097
100097
100097
100097
100097
100097
100097
100097
100097
100097
100097
100097
100097
100097
100097
100097
100097
100097
100097
100097
100097
100097
100097
100097
100097
100097
100097
100097
100097
100097
100097
100097
100097
100097
100097
100097
100097
100097
100097
100096
100096
100096
100096
100096
100096
100096
100096
100096
100096
100096
100096
100096
100096
100096
100096
100096
100096
100096
100096
100096
100096
100096
100096
100096
100096
100096
100096
100096
100096
100096
100096
100096
100096
100095
100095
100095
100095
100095
100095
100095
100095
100095
100095
100095
100095
100095
100095
100094
100094
100094
100094
100094
100094
100094
100094
100094
100094
100093
100093
100093
100093
100093
100093
100093
100092
100092
100092
100092
100092
100092
100091
100091
100091
100091
100091
100090
100090
100090
100090
100089
100089
100089
100089
100088
100088
100088
100087
100087
100087
100087
100086
100086
100086
100085
100085
100084
100084
100084
100083
100083
100082
100082
100082
100081
100081
100080
100080
100079
100079
100078
100078
100077
100076
100076
100075
100075
100074
100073
100073
100072
100071
100071
100070
100069
100069
100068
100067
100066
100066
100065
100064
100063
100062
100061
100060
100060
100059
100058
100057
100056
100055
100054
100053
100052
100051
100050
100049
100048
100047
100045
100044
100043
100042
100041
100040
100039
100037
100036
100035
100034
100032
100031
100030
100028
100027
100026
100024
100023
100022
100020
100019
100017
100016
100015
100013
100012
100010
100009
100007
100006
100004
100003
100001
99999.6
99998.1
99996.5
99995
99993.4
99991.9
99990.3
99988.7
99987.2
99985.6
99984
99982.4
99980.9
99979.3
99977.7
99976.1
99974.6
99973
99971.4
99969.9
99968.3
99966.7
99965.2
99963.7
99962.1
99960.6
99959.1
99957.6
99956.1
99954.6
99953.1
99951.7
99950.2
99948.8
99947.4
99946
99944.6
99943.3
99941.9
99940.6
99939.3
99938
99936.8
99935.6
99934.4
99933.2
99932
99930.9
99929.8
99928.8
99927.7
99926.7
99925.8
99924.8
99923.9
99923.1
99922.2
99921.5
99920.7
99920
99919.3
99918.7
99918.1
99917.6
99917.1
99916.7
99916.3
99915.9
99915.6
99915.4
99915.2
99915
99914.9
99914.9
99914.9
99915
99915.1
99915.3
99915.6
99915.9
99916.3
99916.7
99917.2
99917.8
99918.4
99919.1
99919.9
99920.7
99921.6
99922.6
99923.7
99924.8
99926
99927.3
99928.6
99930
99931.5
99933.1
99934.8
99936.5
99938.4
99940.3
99942.3
99944.4
99946.5
99948.8
99951.1
99953.6
99956.1
99958.7
99961.4
99964.2
99967.1
99970
99973.1
99976.3
99979.6
99982.9
99986.4
99990
99993.6
99997.4
100001
100005
100009
100013
100018
100022
100027
100031
100036
100041
100046
100051
100056
100061
100066
100072
100078
100083
100089
100095
100101
100107
100114
100120
100127
100133
100140
100147
100154
100161
100168
100176
100183
100191
100199
100206
100214
100223
100231
100239
100248
100256
100265
100274
100283
100292
100302
100311
100321
100330
100340
100350
100360
100370
100381
100391
100402
100413
100424
100435
100446
100457
100469
100480
100492
100504
100516
100528
100540
100553
100565
100578
100591
100604
100617
100630
100644
100657
100671
100685
100699
100713
100728
100742
100757
100771
100786
100801
100816
100832
100847
100863
100879
100895
100911
100927
100943
100960
100977
100993
101010
101027
101045
101062
101080
101097
101115
101133
101152
101170
101188
101207
101226
101245
101264
101283
101302
101322
101342
101362
101382
101402
101422
101443
101463
101484
101505
101526
101547
101569
101590
101612
101634
101656
101678
101700
101723
101745
101768
101791
101814
101838
101861
101885
101908
101932
101956
101981
102005
102029
102054
102079
102104
102129
102154
102180
102205
102231
102257
102283
102310
102336
102363
102389
102416
102443
102470
102498
102525
102553
102581
102609
102637
102665
102694
102722
102751
102780
102809
102838
102868
102897
102927
102957
102987
103017
103047
103078
103108
103139
103170
103201
103232
103264
103295
103327
103359
103391
103423
103456
103488
103521
103553
103586
103620
103653
103686
103720
103753
103787
103821
103855
103890
103924
103959
103993
104028
104063
104098
104134
104169
104205
104240
104276
104312
104348
104384
104421
104457
104494
104531
104567
104604
104642
104679
104716
104754
104791
104829
104867
104905
104943
104981
105019
105057
105096
105134
105173
105211
105250
105289
105327
105366
105405
105444
105483
105522
105561
105600
105640
105679
105718
105757
105796
105835
105874
105913
105952
105991
106029
106068
106106
106145
106183
106221
106258
106296
106333
106371
106407
106444
106480
106516
106551
106586
106621
106655
106688
106721
106754
106785
106817
106847
106876
106905
106933
106960
106985
107010
107034
107056
107077
107097
107115
107132
107147
107161
107173
107183
107191
107197
107201
107202
107202
107198
107193
107185
107174
107160
107144
107124
107102
107076
107047
107015
106980
106941
106899
106853
106804
106751
106695
106635
106572
106505
106434
106361
106284
106204
106120
106034
105944
105852
105757
105659
105559
105457
105353
105247
105139
105030
104920
104808
104696
104583
104469
104355
104241
104127
104014
103901
103788
103677
103566
103457
103349
103242
103137
103033
102932
102832
102734
102638
102544
102452
102363
102276
102191
102108
102028
101949
101874
101800
101729
101660
101594
101529
101467
101407
101349
101293
101240
101188
101138
101090
101044
101000
100958
100917
100879
100841
100806
100771
100739
100707
100677
100649
100621
100595
100570
100547
100524
100502
100482
100462
100443
100425
100408
100392
100377
100362
100348
100335
100322
100310
100299
100288
100278
100268
100259
100250
100242
100234
100227
100219
100213
100206
100200
100195
100189
100184
100179
100174
100170
100166
100162
100158
100155
100152
100148
100145
100143
100140
100138
100135
100133
100131
100129
100127
100125
100124
100122
100121
100119
100118
100117
100115
100114
100113
100112
100111
100110
100110
100109
100108
100107
100107
100106
100106
100105
100105
100104
100104
100103
100103
100102
100102
100102
100101
100101
100101
100101
100100
100100
100100
100100
100100
100099
100099
100099
100099
100099
100099
100099
100098
100098
100098
100098
100098
100098
100098
100098
100098
100098
100098
100098
100098
100097
100097
100097
100097
100097
100097
100097
100097
100097
100097
100097
100097
100097
100097
100097
100097
100097
100097
100097
100097
100097
100097
100097
100097
100097
100097
100097
100097
100097
100097
100097
100097
100097
100097
100097
100097
)
;

boundaryField
{
    topWall
    {
        type            empty;
    }
    bottomWall
    {
        type            empty;
    }
    leftAndRight_half1
    {
        type            cyclic;
    }
    leftAndRight_half0
    {
        type            cyclic;
    }
    frontAndBack
    {
        type            empty;
    }
}


// ************************************************************************* //
