/*--------------------------------*- C++ -*----------------------------------*\
  =========                 |
  \\      /  F ield         | OpenFOAM: The Open Source CFD Toolbox
   \\    /   O peration     | Website:  https://openfoam.org
    \\  /    A nd           | Version:  9
     \\/     M anipulation  |
\*---------------------------------------------------------------------------*/
FoamFile
{
    format      ascii;
    class       volVectorField;
    location    "0.7";
    object      U;
}
// * * * * * * * * * * * * * * * * * * * * * * * * * * * * * * * * * * * * * //

dimensions      [0 1 -1 0 0 0 0];

internalField   nonuniform List<vector> 
1000
(
(0.439998 0 0)
(0.439997 0 0)
(0.439996 0 0)
(0.439996 0 0)
(0.439995 0 0)
(0.439995 0 0)
(0.439994 0 0)
(0.439994 0 0)
(0.439994 0 0)
(0.439993 0 0)
(0.439993 0 0)
(0.439993 0 0)
(0.439992 0 0)
(0.439992 0 0)
(0.439992 0 0)
(0.439992 0 0)
(0.439992 0 0)
(0.439991 0 0)
(0.439991 0 0)
(0.439991 0 0)
(0.439991 0 0)
(0.439991 0 0)
(0.439991 0 0)
(0.439991 0 0)
(0.43999 0 0)
(0.43999 0 0)
(0.43999 0 0)
(0.43999 0 0)
(0.43999 0 0)
(0.43999 0 0)
(0.43999 0 0)
(0.43999 0 0)
(0.43999 0 0)
(0.43999 0 0)
(0.43999 0 0)
(0.43999 0 0)
(0.43999 0 0)
(0.43999 0 0)
(0.43999 0 0)
(0.43999 0 0)
(0.43999 0 0)
(0.43999 0 0)
(0.43999 0 0)
(0.43999 0 0)
(0.43999 0 0)
(0.43999 0 0)
(0.43999 0 0)
(0.43999 0 0)
(0.43999 0 0)
(0.43999 0 0)
(0.43999 0 0)
(0.43999 0 0)
(0.43999 0 0)
(0.43999 0 0)
(0.43999 0 0)
(0.43999 0 0)
(0.43999 0 0)
(0.43999 0 0)
(0.43999 0 0)
(0.43999 0 0)
(0.43999 0 0)
(0.43999 0 0)
(0.43999 0 0)
(0.43999 0 0)
(0.43999 0 0)
(0.43999 0 0)
(0.43999 0 0)
(0.439991 0 0)
(0.439991 0 0)
(0.439991 0 0)
(0.439991 0 0)
(0.439991 0 0)
(0.439991 0 0)
(0.439991 0 0)
(0.439991 0 0)
(0.439991 0 0)
(0.439992 0 0)
(0.439992 0 0)
(0.439992 0 0)
(0.439992 0 0)
(0.439992 0 0)
(0.439993 0 0)
(0.439993 0 0)
(0.439993 0 0)
(0.439993 0 0)
(0.439993 0 0)
(0.439994 0 0)
(0.439994 0 0)
(0.439994 0 0)
(0.439995 0 0)
(0.439995 0 0)
(0.439995 0 0)
(0.439996 0 0)
(0.439996 0 0)
(0.439996 0 0)
(0.439997 0 0)
(0.439997 0 0)
(0.439998 0 0)
(0.439998 0 0)
(0.439999 0 0)
(0.439999 0 0)
(0.44 0 0)
(0.440001 0 0)
(0.440001 0 0)
(0.440002 0 0)
(0.440003 0 0)
(0.440004 0 0)
(0.440004 0 0)
(0.440005 0 0)
(0.440006 0 0)
(0.440007 0 0)
(0.440008 0 0)
(0.440009 0 0)
(0.44001 0 0)
(0.440012 0 0)
(0.440013 0 0)
(0.440014 0 0)
(0.440015 0 0)
(0.440017 0 0)
(0.440018 0 0)
(0.44002 0 0)
(0.440022 0 0)
(0.440023 0 0)
(0.440025 0 0)
(0.440027 0 0)
(0.440029 0 0)
(0.440031 0 0)
(0.440034 0 0)
(0.440036 0 0)
(0.440038 0 0)
(0.440041 0 0)
(0.440044 0 0)
(0.440047 0 0)
(0.44005 0 0)
(0.440053 0 0)
(0.440056 0 0)
(0.44006 0 0)
(0.440063 0 0)
(0.440067 0 0)
(0.440071 0 0)
(0.440075 0 0)
(0.44008 0 0)
(0.440084 0 0)
(0.440089 0 0)
(0.440094 0 0)
(0.440099 0 0)
(0.440105 0 0)
(0.440111 0 0)
(0.440117 0 0)
(0.440123 0 0)
(0.44013 0 0)
(0.440137 0 0)
(0.440144 0 0)
(0.440152 0 0)
(0.440159 0 0)
(0.440168 0 0)
(0.440176 0 0)
(0.440186 0 0)
(0.440195 0 0)
(0.440205 0 0)
(0.440215 0 0)
(0.440226 0 0)
(0.440237 0 0)
(0.440249 0 0)
(0.440262 0 0)
(0.440274 0 0)
(0.440288 0 0)
(0.440302 0 0)
(0.440317 0 0)
(0.440332 0 0)
(0.440348 0 0)
(0.440364 0 0)
(0.440382 0 0)
(0.4404 0 0)
(0.440419 0 0)
(0.440438 0 0)
(0.440459 0 0)
(0.44048 0 0)
(0.440502 0 0)
(0.440525 0 0)
(0.44055 0 0)
(0.440575 0 0)
(0.440601 0 0)
(0.440628 0 0)
(0.440656 0 0)
(0.440686 0 0)
(0.440717 0 0)
(0.440748 0 0)
(0.440782 0 0)
(0.440816 0 0)
(0.440852 0 0)
(0.44089 0 0)
(0.440928 0 0)
(0.440969 0 0)
(0.441011 0 0)
(0.441054 0 0)
(0.4411 0 0)
(0.441147 0 0)
(0.441196 0 0)
(0.441246 0 0)
(0.441299 0 0)
(0.441354 0 0)
(0.441411 0 0)
(0.44147 0 0)
(0.441531 0 0)
(0.441594 0 0)
(0.44166 0 0)
(0.441729 0 0)
(0.4418 0 0)
(0.441873 0 0)
(0.441949 0 0)
(0.442028 0 0)
(0.44211 0 0)
(0.442195 0 0)
(0.442283 0 0)
(0.442374 0 0)
(0.442468 0 0)
(0.442566 0 0)
(0.442667 0 0)
(0.442771 0 0)
(0.44288 0 0)
(0.442992 0 0)
(0.443108 0 0)
(0.443228 0 0)
(0.443352 0 0)
(0.443481 0 0)
(0.443613 0 0)
(0.443751 0 0)
(0.443893 0 0)
(0.444039 0 0)
(0.444191 0 0)
(0.444348 0 0)
(0.44451 0 0)
(0.444677 0 0)
(0.44485 0 0)
(0.445028 0 0)
(0.445212 0 0)
(0.445402 0 0)
(0.445599 0 0)
(0.445801 0 0)
(0.44601 0 0)
(0.446226 0 0)
(0.446448 0 0)
(0.446678 0 0)
(0.446914 0 0)
(0.447158 0 0)
(0.44741 0 0)
(0.447669 0 0)
(0.447936 0 0)
(0.448211 0 0)
(0.448495 0 0)
(0.448787 0 0)
(0.449088 0 0)
(0.449398 0 0)
(0.449717 0 0)
(0.450045 0 0)
(0.450383 0 0)
(0.450731 0 0)
(0.451089 0 0)
(0.451457 0 0)
(0.451835 0 0)
(0.452225 0 0)
(0.452625 0 0)
(0.453037 0 0)
(0.45346 0 0)
(0.453895 0 0)
(0.454343 0 0)
(0.454802 0 0)
(0.455274 0 0)
(0.455759 0 0)
(0.456257 0 0)
(0.456768 0 0)
(0.457293 0 0)
(0.457832 0 0)
(0.458385 0 0)
(0.458952 0 0)
(0.459535 0 0)
(0.460132 0 0)
(0.460745 0 0)
(0.461374 0 0)
(0.462018 0 0)
(0.462679 0 0)
(0.463356 0 0)
(0.464051 0 0)
(0.464762 0 0)
(0.465491 0 0)
(0.466238 0 0)
(0.467003 0 0)
(0.467787 0 0)
(0.468589 0 0)
(0.469411 0 0)
(0.470252 0 0)
(0.471113 0 0)
(0.471994 0 0)
(0.472896 0 0)
(0.473818 0 0)
(0.474761 0 0)
(0.475727 0 0)
(0.476713 0 0)
(0.477722 0 0)
(0.478754 0 0)
(0.479808 0 0)
(0.480886 0 0)
(0.481987 0 0)
(0.483113 0 0)
(0.484262 0 0)
(0.485436 0 0)
(0.486635 0 0)
(0.48786 0 0)
(0.48911 0 0)
(0.490386 0 0)
(0.491688 0 0)
(0.493017 0 0)
(0.494374 0 0)
(0.495757 0 0)
(0.497169 0 0)
(0.498608 0 0)
(0.500077 0 0)
(0.501573 0 0)
(0.5031 0 0)
(0.504655 0 0)
(0.506241 0 0)
(0.507857 0 0)
(0.509503 0 0)
(0.51118 0 0)
(0.512889 0 0)
(0.514629 0 0)
(0.516401 0 0)
(0.518205 0 0)
(0.520042 0 0)
(0.521912 0 0)
(0.523815 0 0)
(0.525752 0 0)
(0.527722 0 0)
(0.529727 0 0)
(0.531767 0 0)
(0.533841 0 0)
(0.53595 0 0)
(0.538095 0 0)
(0.540276 0 0)
(0.542493 0 0)
(0.544746 0 0)
(0.547036 0 0)
(0.549363 0 0)
(0.551727 0 0)
(0.554129 0 0)
(0.556569 0 0)
(0.559047 0 0)
(0.561563 0 0)
(0.564118 0 0)
(0.566712 0 0)
(0.569345 0 0)
(0.572017 0 0)
(0.574729 0 0)
(0.577482 0 0)
(0.580274 0 0)
(0.583107 0 0)
(0.58598 0 0)
(0.588895 0 0)
(0.59185 0 0)
(0.594847 0 0)
(0.597885 0 0)
(0.600965 0 0)
(0.604087 0 0)
(0.607252 0 0)
(0.610458 0 0)
(0.613708 0 0)
(0.616999 0 0)
(0.620334 0 0)
(0.623712 0 0)
(0.627133 0 0)
(0.630598 0 0)
(0.634106 0 0)
(0.637658 0 0)
(0.641253 0 0)
(0.644893 0 0)
(0.648577 0 0)
(0.652305 0 0)
(0.656077 0 0)
(0.659894 0 0)
(0.663755 0 0)
(0.667661 0 0)
(0.671612 0 0)
(0.675608 0 0)
(0.679649 0 0)
(0.683735 0 0)
(0.687866 0 0)
(0.692042 0 0)
(0.696263 0 0)
(0.70053 0 0)
(0.704842 0 0)
(0.7092 0 0)
(0.713603 0 0)
(0.718052 0 0)
(0.722546 0 0)
(0.727085 0 0)
(0.731671 0 0)
(0.736302 0 0)
(0.740978 0 0)
(0.7457 0 0)
(0.750468 0 0)
(0.755281 0 0)
(0.76014 0 0)
(0.765045 0 0)
(0.769995 0 0)
(0.774991 0 0)
(0.780032 0 0)
(0.785119 0 0)
(0.790251 0 0)
(0.795428 0 0)
(0.800651 0 0)
(0.805919 0 0)
(0.811233 0 0)
(0.816591 0 0)
(0.821995 0 0)
(0.827444 0 0)
(0.832937 0 0)
(0.838476 0 0)
(0.844059 0 0)
(0.849687 0 0)
(0.855359 0 0)
(0.861077 0 0)
(0.866838 0 0)
(0.872644 0 0)
(0.878494 0 0)
(0.884388 0 0)
(0.890326 0 0)
(0.896308 0 0)
(0.902333 0 0)
(0.908402 0 0)
(0.914515 0 0)
(0.920671 0 0)
(0.92687 0 0)
(0.933112 0 0)
(0.939397 0 0)
(0.945725 0 0)
(0.952095 0 0)
(0.958508 0 0)
(0.964963 0 0)
(0.97146 0 0)
(0.978 0 0)
(0.984581 0 0)
(0.991203 0 0)
(0.997868 0 0)
(1.00457 0 0)
(1.01132 0 0)
(1.01811 0 0)
(1.02494 0 0)
(1.0318 0 0)
(1.03871 0 0)
(1.04566 0 0)
(1.05265 0 0)
(1.05968 0 0)
(1.06675 0 0)
(1.07386 0 0)
(1.08101 0 0)
(1.0882 0 0)
(1.09542 0 0)
(1.10269 0 0)
(1.10999 0 0)
(1.11733 0 0)
(1.12471 0 0)
(1.13213 0 0)
(1.13959 0 0)
(1.14708 0 0)
(1.15461 0 0)
(1.16218 0 0)
(1.16978 0 0)
(1.17742 0 0)
(1.1851 0 0)
(1.19281 0 0)
(1.20056 0 0)
(1.20835 0 0)
(1.21617 0 0)
(1.22402 0 0)
(1.23192 0 0)
(1.23984 0 0)
(1.2478 0 0)
(1.2558 0 0)
(1.26383 0 0)
(1.27189 0 0)
(1.27999 0 0)
(1.28812 0 0)
(1.29629 0 0)
(1.30449 0 0)
(1.31272 0 0)
(1.32099 0 0)
(1.32928 0 0)
(1.33761 0 0)
(1.34597 0 0)
(1.35437 0 0)
(1.36279 0 0)
(1.37125 0 0)
(1.37974 0 0)
(1.38826 0 0)
(1.39681 0 0)
(1.40539 0 0)
(1.414 0 0)
(1.42264 0 0)
(1.43132 0 0)
(1.44002 0 0)
(1.44875 0 0)
(1.45751 0 0)
(1.4663 0 0)
(1.47512 0 0)
(1.48396 0 0)
(1.49284 0 0)
(1.50175 0 0)
(1.51068 0 0)
(1.51964 0 0)
(1.52863 0 0)
(1.53764 0 0)
(1.54668 0 0)
(1.55575 0 0)
(1.56485 0 0)
(1.57397 0 0)
(1.58312 0 0)
(1.5923 0 0)
(1.6015 0 0)
(1.61073 0 0)
(1.61998 0 0)
(1.62926 0 0)
(1.63857 0 0)
(1.6479 0 0)
(1.65725 0 0)
(1.66663 0 0)
(1.67603 0 0)
(1.68546 0 0)
(1.69491 0 0)
(1.70439 0 0)
(1.71389 0 0)
(1.72341 0 0)
(1.73296 0 0)
(1.74252 0 0)
(1.75212 0 0)
(1.76173 0 0)
(1.77137 0 0)
(1.78103 0 0)
(1.79071 0 0)
(1.80041 0 0)
(1.81014 0 0)
(1.81988 0 0)
(1.82965 0 0)
(1.83944 0 0)
(1.84925 0 0)
(1.85908 0 0)
(1.86893 0 0)
(1.8788 0 0)
(1.88869 0 0)
(1.89861 0 0)
(1.90854 0 0)
(1.91849 0 0)
(1.92846 0 0)
(1.93845 0 0)
(1.94846 0 0)
(1.95849 0 0)
(1.96854 0 0)
(1.9786 0 0)
(1.98869 0 0)
(1.99879 0 0)
(2.00891 0 0)
(2.01905 0 0)
(2.0292 0 0)
(2.03938 0 0)
(2.04957 0 0)
(2.05978 0 0)
(2.07 0 0)
(2.08024 0 0)
(2.0905 0 0)
(2.10078 0 0)
(2.11107 0 0)
(2.12138 0 0)
(2.1317 0 0)
(2.14204 0 0)
(2.15239 0 0)
(2.16276 0 0)
(2.17315 0 0)
(2.18355 0 0)
(2.19397 0 0)
(2.2044 0 0)
(2.21484 0 0)
(2.2253 0 0)
(2.23577 0 0)
(2.24626 0 0)
(2.25676 0 0)
(2.26727 0 0)
(2.2778 0 0)
(2.28834 0 0)
(2.29889 0 0)
(2.30946 0 0)
(2.32004 0 0)
(2.33063 0 0)
(2.34123 0 0)
(2.35185 0 0)
(2.36248 0 0)
(2.37311 0 0)
(2.38376 0 0)
(2.39443 0 0)
(2.4051 0 0)
(2.41578 0 0)
(2.42648 0 0)
(2.43718 0 0)
(2.44789 0 0)
(2.45862 0 0)
(2.46935 0 0)
(2.4801 0 0)
(2.49085 0 0)
(2.50161 0 0)
(2.51238 0 0)
(2.52316 0 0)
(2.53395 0 0)
(2.54474 0 0)
(2.55554 0 0)
(2.56636 0 0)
(2.57717 0 0)
(2.588 0 0)
(2.59883 0 0)
(2.60967 0 0)
(2.62051 0 0)
(2.63136 0 0)
(2.64221 0 0)
(2.65307 0 0)
(2.66394 0 0)
(2.67481 0 0)
(2.68568 0 0)
(2.69656 0 0)
(2.70744 0 0)
(2.71832 0 0)
(2.72921 0 0)
(2.74009 0 0)
(2.75098 0 0)
(2.76188 0 0)
(2.77277 0 0)
(2.78366 0 0)
(2.79455 0 0)
(2.80545 0 0)
(2.81634 0 0)
(2.82723 0 0)
(2.83812 0 0)
(2.849 0 0)
(2.85989 0 0)
(2.87077 0 0)
(2.88164 0 0)
(2.89251 0 0)
(2.90338 0 0)
(2.91424 0 0)
(2.92509 0 0)
(2.93593 0 0)
(2.94677 0 0)
(2.9576 0 0)
(2.96842 0 0)
(2.97922 0 0)
(2.99002 0 0)
(3.0008 0 0)
(3.01157 0 0)
(3.02233 0 0)
(3.03307 0 0)
(3.04379 0 0)
(3.0545 0 0)
(3.06519 0 0)
(3.07586 0 0)
(3.08651 0 0)
(3.09713 0 0)
(3.10774 0 0)
(3.11831 0 0)
(3.12887 0 0)
(3.13939 0 0)
(3.14989 0 0)
(3.16035 0 0)
(3.17078 0 0)
(3.18118 0 0)
(3.19154 0 0)
(3.20187 0 0)
(3.21215 0 0)
(3.2224 0 0)
(3.2326 0 0)
(3.24275 0 0)
(3.25285 0 0)
(3.26291 0 0)
(3.27291 0 0)
(3.28285 0 0)
(3.29274 0 0)
(3.30257 0 0)
(3.31233 0 0)
(3.32202 0 0)
(3.33164 0 0)
(3.34119 0 0)
(3.35066 0 0)
(3.36005 0 0)
(3.36935 0 0)
(3.37857 0 0)
(3.38769 0 0)
(3.39672 0 0)
(3.40564 0 0)
(3.41446 0 0)
(3.42316 0 0)
(3.43175 0 0)
(3.44022 0 0)
(3.44856 0 0)
(3.45677 0 0)
(3.46484 0 0)
(3.47276 0 0)
(3.48053 0 0)
(3.48815 0 0)
(3.4956 0 0)
(3.50287 0 0)
(3.50997 0 0)
(3.51688 0 0)
(3.52359 0 0)
(3.5301 0 0)
(3.53639 0 0)
(3.54246 0 0)
(3.5483 0 0)
(3.5539 0 0)
(3.55924 0 0)
(3.56432 0 0)
(3.56913 0 0)
(3.57365 0 0)
(3.57788 0 0)
(3.58179 0 0)
(3.58538 0 0)
(3.58864 0 0)
(3.59155 0 0)
(3.59409 0 0)
(3.59626 0 0)
(3.59804 0 0)
(3.5994 0 0)
(3.60035 0 0)
(3.60085 0 0)
(3.6009 0 0)
(3.60048 0 0)
(3.59956 0 0)
(3.59814 0 0)
(3.59619 0 0)
(3.59369 0 0)
(3.59063 0 0)
(3.58699 0 0)
(3.58274 0 0)
(3.57788 0 0)
(3.57236 0 0)
(3.56619 0 0)
(3.55933 0 0)
(3.55176 0 0)
(3.54348 0 0)
(3.53444 0 0)
(3.52464 0 0)
(3.51406 0 0)
(3.50267 0 0)
(3.49045 0 0)
(3.47739 0 0)
(3.46347 0 0)
(3.44866 0 0)
(3.43296 0 0)
(3.41634 0 0)
(3.39879 0 0)
(3.3803 0 0)
(3.36085 0 0)
(3.34042 0 0)
(3.31902 0 0)
(3.29663 0 0)
(3.27324 0 0)
(3.24886 0 0)
(3.22346 0 0)
(3.19706 0 0)
(3.16966 0 0)
(3.14126 0 0)
(3.11186 0 0)
(3.08148 0 0)
(3.05012 0 0)
(3.0178 0 0)
(2.98454 0 0)
(2.95035 0 0)
(2.91527 0 0)
(2.87931 0 0)
(2.8425 0 0)
(2.80488 0 0)
(2.76647 0 0)
(2.72733 0 0)
(2.68748 0 0)
(2.64697 0 0)
(2.60585 0 0)
(2.56415 0 0)
(2.52194 0 0)
(2.47927 0 0)
(2.43618 0 0)
(2.39273 0 0)
(2.34898 0 0)
(2.30498 0 0)
(2.2608 0 0)
(2.21649 0 0)
(2.17211 0 0)
(2.12772 0 0)
(2.08338 0 0)
(2.03915 0 0)
(1.99508 0 0)
(1.95123 0 0)
(1.90766 0 0)
(1.86442 0 0)
(1.82155 0 0)
(1.77912 0 0)
(1.73716 0 0)
(1.69572 0 0)
(1.65485 0 0)
(1.61458 0 0)
(1.57495 0 0)
(1.536 0 0)
(1.49775 0 0)
(1.46024 0 0)
(1.42349 0 0)
(1.38753 0 0)
(1.35237 0 0)
(1.31803 0 0)
(1.28453 0 0)
(1.25187 0 0)
(1.22007 0 0)
(1.18913 0 0)
(1.15906 0 0)
(1.12986 0 0)
(1.10152 0 0)
(1.07405 0 0)
(1.04744 0 0)
(1.02169 0 0)
(0.996778 0 0)
(0.972707 0 0)
(0.949461 0 0)
(0.92703 0 0)
(0.905398 0 0)
(0.884553 0 0)
(0.864478 0 0)
(0.845158 0 0)
(0.826576 0 0)
(0.808714 0 0)
(0.791554 0 0)
(0.775078 0 0)
(0.759269 0 0)
(0.744106 0 0)
(0.72957 0 0)
(0.715644 0 0)
(0.702308 0 0)
(0.689543 0 0)
(0.67733 0 0)
(0.66565 0 0)
(0.654486 0 0)
(0.643819 0 0)
(0.63363 0 0)
(0.623903 0 0)
(0.61462 0 0)
(0.605763 0 0)
(0.597318 0 0)
(0.589266 0 0)
(0.581594 0 0)
(0.574284 0 0)
(0.567323 0 0)
(0.560696 0 0)
(0.554388 0 0)
(0.548387 0 0)
(0.542679 0 0)
(0.537251 0 0)
(0.532091 0 0)
(0.527187 0 0)
(0.522527 0 0)
(0.518102 0 0)
(0.513899 0 0)
(0.509909 0 0)
(0.506122 0 0)
(0.502528 0 0)
(0.499119 0 0)
(0.495885 0 0)
(0.492819 0 0)
(0.489912 0 0)
(0.487157 0 0)
(0.484546 0 0)
(0.482072 0 0)
(0.479729 0 0)
(0.47751 0 0)
(0.475409 0 0)
(0.47342 0 0)
(0.471538 0 0)
(0.469756 0 0)
(0.468071 0 0)
(0.466477 0 0)
(0.464969 0 0)
(0.463544 0 0)
(0.462196 0 0)
(0.460922 0 0)
(0.459718 0 0)
(0.458581 0 0)
(0.457506 0 0)
(0.456491 0 0)
(0.455532 0 0)
(0.454627 0 0)
(0.453773 0 0)
(0.452966 0 0)
(0.452205 0 0)
(0.451486 0 0)
(0.450809 0 0)
(0.45017 0 0)
(0.449567 0 0)
(0.448998 0 0)
(0.448462 0 0)
(0.447957 0 0)
(0.447481 0 0)
(0.447032 0 0)
(0.446609 0 0)
(0.446211 0 0)
(0.445836 0 0)
(0.445482 0 0)
(0.44515 0 0)
(0.444836 0 0)
(0.444541 0 0)
(0.444264 0 0)
(0.444003 0 0)
(0.443757 0 0)
(0.443526 0 0)
(0.443308 0 0)
(0.443103 0 0)
(0.442911 0 0)
(0.44273 0 0)
(0.44256 0 0)
(0.4424 0 0)
(0.44225 0 0)
(0.442109 0 0)
(0.441976 0 0)
(0.441852 0 0)
(0.441735 0 0)
(0.441625 0 0)
(0.441522 0 0)
(0.441425 0 0)
(0.441334 0 0)
(0.441249 0 0)
(0.441169 0 0)
(0.441094 0 0)
(0.441023 0 0)
(0.440957 0 0)
(0.440895 0 0)
(0.440837 0 0)
(0.440782 0 0)
(0.440731 0 0)
(0.440683 0 0)
(0.440638 0 0)
(0.440596 0 0)
(0.440557 0 0)
(0.44052 0 0)
(0.440485 0 0)
(0.440453 0 0)
(0.440422 0 0)
(0.440394 0 0)
(0.440367 0 0)
(0.440342 0 0)
(0.440319 0 0)
(0.440297 0 0)
(0.440277 0 0)
(0.440258 0 0)
(0.44024 0 0)
(0.440223 0 0)
(0.440208 0 0)
(0.440193 0 0)
(0.440179 0 0)
(0.440167 0 0)
(0.440155 0 0)
(0.440144 0 0)
(0.440133 0 0)
(0.440123 0 0)
(0.440114 0 0)
(0.440106 0 0)
(0.440098 0 0)
(0.440091 0 0)
(0.440084 0 0)
(0.440077 0 0)
(0.440071 0 0)
(0.440065 0 0)
(0.44006 0 0)
(0.440055 0 0)
(0.440051 0 0)
(0.440047 0 0)
(0.440043 0 0)
(0.440039 0 0)
(0.440035 0 0)
(0.440032 0 0)
(0.440029 0 0)
(0.440026 0 0)
(0.440024 0 0)
(0.440021 0 0)
(0.440019 0 0)
(0.440017 0 0)
(0.440015 0 0)
(0.440013 0 0)
(0.440011 0 0)
(0.44001 0 0)
(0.440008 0 0)
(0.440007 0 0)
(0.440006 0 0)
(0.440005 0 0)
(0.440003 0 0)
(0.440002 0 0)
(0.440001 0 0)
(0.440001 0 0)
(0.44 0 0)
(0.439999 0 0)
(0.439998 0 0)
)
;

boundaryField
{
    topWall
    {
        type            empty;
    }
    bottomWall
    {
        type            empty;
    }
    leftAndRight_half1
    {
        type            cyclic;
    }
    leftAndRight_half0
    {
        type            cyclic;
    }
    frontAndBack
    {
        type            empty;
    }
}


// ************************************************************************* //
