/*--------------------------------*- C++ -*----------------------------------*\
  =========                 |
  \\      /  F ield         | OpenFOAM: The Open Source CFD Toolbox
   \\    /   O peration     | Website:  https://openfoam.org
    \\  /    A nd           | Version:  9
     \\/     M anipulation  |
\*---------------------------------------------------------------------------*/
FoamFile
{
    format      ascii;
    class       volScalarField;
    location    "1";
    object      f_1;
}
// * * * * * * * * * * * * * * * * * * * * * * * * * * * * * * * * * * * * * //

dimensions      [1 -3 0 0 0 0 0];

internalField   nonuniform List<scalar> 
120000
(
3.91399e+25
-3.29901e+26
-7.21729e+26
-7.34715e+26
-9.47842e+26
2.55626e+27
-5.55648e+27
-3.10692e+27
-1.0857e+27
-6.23465e+26
-3.46043e+26
-2.93557e+26
-2.08174e+27
3.16895e+26
3.41239e+27
5.98132e+27
9.17316e+27
1.22875e+28
1.6612e+28
2.41703e+28
4.62454e+28
1.10242e+29
2.82105e+29
7.98053e+29
1.46601e+30
2.33037e+30
3.74421e+30
5.7392e+30
9.85492e+30
1.66158e+31
2.61431e+31
3.98916e+31
6.09496e+31
1.04211e+32
1.76763e+32
2.84988e+32
4.45294e+32
7.07318e+32
1.17214e+33
2.03012e+33
3.56955e+33
6.1225e+33
1.03694e+34
1.73707e+34
2.8988e+34
4.81492e+34
7.9701e+34
1.30933e+35
2.13263e+35
3.45298e+35
5.47078e+35
8.5241e+35
1.31274e+36
2.02644e+36
3.08342e+36
4.64557e+36
6.98016e+36
1.04568e+37
1.56229e+37
2.30343e+37
3.31817e+37
4.57179e+37
5.91311e+37
6.75972e+37
-7.01262e+37
7.44731e+38
-5.76828e+38
-2.82004e+39
-2.3986e+39
-1.02839e+39
7.98397e+39
4.56127e+40
9.63321e+40
-7.1665e+39
-5.12899e+40
-5.95731e+40
-8.10949e+39
-8.01772e+39
1.82888e+41
3.52966e+41
7.56889e+41
1.1848e+42
1.25524e+42
-3.93314e+42
-3.15413e+43
-1.62094e+44
-4.14441e+44
-8.48851e+43
-3.44759e+43
4.23415e+42
1.14081e+44
2.92901e+44
1.05077e+44
3.99837e+43
9.41823e+42
7.14316e+42
6.81406e+42
6.2462e+42
4.41297e+42
3.08162e+41
2.82231e+43
6.13935e+42
9.28516e+44
-5.51872e+45
-6.06659e+45
-3.10185e+45
-4.47468e+44
-6.0795e+43
5.31417e+43
1.2246e+44
1.78084e+44
2.50316e+44
3.55877e+44
5.33272e+44
8.16753e+44
4.44742e+44
6.82809e+44
4.12438e+45
4.85399e+45
7.34599e+45
9.94318e+45
2.85126e+47
1.60177e+47
1.16388e+47
2.86143e+47
2.53213e+47
1.67802e+47
-9.85076e+47
-3.72587e+47
7.88956e+48
7.51692e+48
2.16276e+48
6.48717e+47
1.83683e+48
9.87764e+48
5.15247e+48
5.13718e+49
9.78341e+49
1.66024e+51
9.94989e+50
2.9248e+50
1.69848e+51
3.39411e+51
5.35195e+51
7.40482e+51
9.22787e+51
1.02768e+52
1.00255e+52
7.94143e+51
3.80812e+51
4.84638e+50
-7.32502e+50
-1.75109e+51
-7.89828e+50
-1.04033e+49
-2.31689e+50
9.60491e+51
-6.30688e+51
-1.6591e+51
2.00257e+52
3.41873e+52
6.59726e+51
-2.09902e+53
-6.74281e+53
-2.01345e+54
7.05772e+53
3.91053e+54
8.77654e+54
1.88189e+55
4.44716e+55
-7.64272e+54
3.16697e+56
9.66516e+56
2.00339e+57
3.25172e+57
5.16864e+57
7.96711e+57
1.19324e+58
1.73494e+58
2.43294e+58
3.25757e+58
4.09896e+58
4.77938e+58
5.46526e+58
7.55371e+58
1.38587e+59
3.02685e+59
4.61626e+59
7.46082e+59
9.03829e+59
4.90527e+59
5.06856e+61
2.26671e+61
1.20785e+61
1.36941e+60
-3.28132e+60
-1.37569e+61
-1.57877e+61
-2.29615e+61
-3.53267e+61
-4.64163e+61
-4.75562e+61
-2.38463e+61
1.47572e+62
-6.17901e+62
-1.32284e+63
-2.26107e+63
-3.88491e+63
-7.04584e+63
-1.37792e+64
-2.92981e+64
-6.71572e+64
-1.55706e+65
-2.26394e+65
-9.26148e+65
-3.51514e+66
1.68138e+66
-6.01091e+66
-2.64708e+66
1.34014e+66
1.24112e+67
2.41882e+67
5.80036e+67
2.67232e+67
1.38186e+67
1.84654e+67
-7.93687e+66
-3.62946e+67
-9.12146e+67
-3.16975e+68
-3.59541e+68
-2.54453e+69
-5.87306e+69
-1.1889e+70
-2.48928e+70
-4.46298e+70
-9.34521e+70
-3.67158e+71
-9.99444e+72
-1.64842e+73
-6.16944e+72
-3.27696e+72
-2.52228e+72
-2.23292e+72
-1.48097e+72
-2.61409e+72
-1.74816e+72
-1.54358e+72
-2.96776e+72
-6.87595e+72
-9.74558e+72
-1.45559e+73
-6.09123e+72
-1.66204e+72
4.52247e+70
-1.33701e+72
-6.3239e+72
-1.12796e+73
-1.44331e+73
5.11892e+72
2.34351e+73
7.44229e+72
-5.07977e+72
-1.57367e+75
2.43391e+76
9.29614e+75
3.4292e+75
1.34362e+75
6.46401e+74
4.93545e+74
6.42945e+74
1.03806e+75
2.20396e+75
5.6655e+75
1.21215e+76
3.28325e+76
6.9673e+76
1.3117e+77
2.17824e+77
-1.01639e+77
9.42237e+77
2.481e+78
9.46829e+78
3.54595e+78
1.0307e+78
-7.85151e+77
3.77914e+77
1.43649e+78
1.53273e+78
2.55121e+78
3.91585e+78
5.69198e+78
1.15697e+79
2.51128e+79
4.18768e+79
7.02561e+79
2.232e+79
-2.29222e+78
1.61871e+79
-2.37992e+80
-6.95589e+79
-2.41735e+80
-6.00628e+81
-8.80265e+81
-9.5047e+81
-5.54148e+81
7.55326e+80
3.48065e+80
1.39165e+80
8.41537e+80
1.76645e+81
3.34101e+82
1.20892e+82
6.16495e+81
5.36766e+81
4.42137e+81
1.53392e+81
1.54742e+81
1.12768e+82
2.41829e+82
4.40993e+82
5.71804e+82
6.98873e+82
5.50703e+82
2.81953e+82
-6.10113e+82
-1.10458e+83
-1.05949e+82
-4.3465e+82
-2.4273e+82
-2.02013e+82
-6.04477e+82
-8.3563e+82
-6.7275e+82
-7.02773e+82
-5.68792e+82
9.20161e+82
2.2703e+83
3.0247e+83
4.20856e+83
3.26951e+83
5.4578e+83
-4.04536e+83
4.49031e+83
-1.66891e+85
-3.00796e+85
-1.15607e+85
4.5308e+85
-1.37202e+85
-1.19231e+86
2.55737e+86
4.55932e+86
2.47778e+86
9.50736e+85
2.56637e+84
-2.36186e+86
-1.12903e+87
-4.12285e+87
-1.29145e+88
-3.58522e+88
-9.08501e+88
-2.15324e+89
-4.85459e+89
-1.05235e+90
-2.20891e+90
-4.51509e+90
-9.01217e+90
-1.761e+91
-3.37393e+91
-6.34501e+91
-1.17234e+92
-2.12956e+92
-3.805e+92
-6.68973e+92
-1.15761e+93
-1.97194e+93
-3.3071e+93
-5.46074e+93
-8.87791e+93
-1.42107e+94
-2.23947e+94
-3.47434e+94
-5.30591e+94
-7.97568e+94
-1.17993e+95
-1.71784e+95
-2.46098e+95
-3.46895e+95
-4.81079e+95
-6.56331e+95
-8.80841e+95
-1.16285e+96
-1.50982e+96
-1.92782e+96
-2.42088e+96
-2.98993e+96
-3.63026e+96
-4.33434e+96
-5.08825e+96
-5.87261e+96
-6.66285e+96
-7.42975e+96
-8.14048e+96
-8.75966e+96
-9.25063e+96
-9.57666e+96
-9.70258e+96
-9.59816e+96
-9.24776e+96
-8.67769e+96
-8.04328e+96
-7.81437e+96
-9.07326e+96
-1.42615e+97
-2.84724e+97
-6.25951e+97
-1.38288e+98
-2.97204e+98
-6.1796e+98
-1.25831e+99
-2.50879e+99
-4.90159e+99
-9.39837e+99
-1.77078e+100
-3.28165e+100
-5.98665e+100
-1.0757e+101
-1.90466e+101
-3.32434e+101
-5.72097e+101
-9.70934e+101
-1.62525e+102
-2.68346e+102
-4.3705e+102
-7.02152e+102
-1.11272e+103
-1.73933e+103
-2.68159e+103
-4.0775e+103
-6.11442e+103
-9.04173e+103
-1.31844e+104
-1.89573e+104
-2.68785e+104
-3.75823e+104
-5.18315e+104
-7.0531e+104
-9.47503e+104
-1.25768e+105
-1.65164e+105
-2.15009e+105
-2.78218e+105
-3.59216e+105
-4.65098e+105
-6.07613e+105
-8.06473e+105
-1.09475e+106
-1.52751e+106
-2.19549e+106
-3.24632e+106
-4.91722e+106
-7.58472e+106
-1.18393e+107
-1.85962e+107
-2.92583e+107
-4.59521e+107
-7.18656e+107
-1.11727e+108
-1.72471e+108
-2.64161e+108
-4.01232e+108
-6.04163e+108
-9.01673e+108
-1.33357e+109
-1.95437e+109
-2.83782e+109
-4.08249e+109
-5.81834e+109
-8.21456e+109
-1.14884e+110
-1.59148e+110
-2.18368e+110
-2.96757e+110
-3.99404e+110
-5.32357e+110
-7.02664e+110
-9.18381e+110
-1.18851e+111
-1.52287e+111
-1.93187e+111
-2.42613e+111
-3.0161e+111
-3.71142e+111
-4.52022e+111
-5.44835e+111
-6.49848e+111
-7.6691e+111
-8.95355e+111
-1.0339e+112
-1.18051e+112
-1.33233e+112
-1.48544e+112
-1.6347e+112
-1.77339e+112
-1.8928e+112
-1.98157e+112
-2.02521e+112
-2.00596e+112
-1.90418e+112
-1.70206e+112
-1.38893e+112
-9.70711e+111
-2.77494e+111
3.51214e+111
1.27793e+112
2.6577e+112
4.56015e+112
7.045e+112
1.01578e+113
1.39574e+113
1.85127e+113
2.3888e+113
3.01288e+113
3.72511e+113
4.52354e+113
5.40218e+113
6.35063e+113
7.35399e+113
8.39286e+113
9.44379e+113
1.04799e+114
1.14719e+114
1.23892e+114
1.32018e+114
1.38812e+114
1.44023e+114
1.4745e+114
1.4895e+114
1.48449e+114
1.45947e+114
1.41521e+114
1.35317e+114
1.27546e+114
1.18473e+114
1.08401e+114
9.76568e+113
8.65738e+113
7.54751e+113
6.46597e+113
5.43891e+113
4.48779e+113
3.62869e+113
2.87198e+113
2.22234e+113
1.67912e+113
1.23707e+113
8.87329e+112
6.18546e+112
4.18129e+112
2.73136e+112
1.70789e+112
1.01378e+112
3.54347e+111
8.60683e+110
1.10787e+110
3.0594e+109
1.3455e+109
7.20385e+109
3.89378e+109
2.21746e+109
1.45957e+109
1.17743e+109
1.05239e+109
5.8908e+108
3.26377e+108
2.08503e+108
1.54839e+108
8.97717e+107
2.97701e+107
-1.16868e+108
-1.17205e+108
5.51633e+107
2.53016e+107
7.73958e+106
1.1976e+106
-9.00481e+104
-3.88697e+106
-2.77566e+106
-2.68452e+106
-4.85033e+106
-1.1038e+107
-3.60759e+106
-3.04174e+106
-3.25226e+106
-1.25865e+107
-1.66293e+107
-1.80216e+107
-1.93704e+107
-1.6125e+107
-6.29815e+107
-7.60584e+25
8.6734e+25
-1.52801e+26
-2.01685e+26
-4.26664e+26
-2.06251e+26
-6.43109e+25
4.15592e+25
3.52562e+26
9.52929e+26
1.20501e+27
3.02447e+27
-7.35809e+26
-6.47972e+26
1.59834e+27
3.04793e+27
5.6497e+27
8.93087e+27
1.29977e+28
1.19636e+28
3.13866e+27
-1.75589e+28
-9.23199e+26
-3.49435e+28
4.96535e+27
4.00512e+28
-1.24253e+28
-1.97388e+28
4.9612e+29
1.26087e+30
2.78707e+30
4.7875e+30
1.17632e+31
2.15022e+31
2.69296e+31
3.65198e+31
5.37186e+31
8.93922e+31
1.53798e+32
2.36063e+32
3.3299e+32
4.2671e+32
5.07977e+32
5.50694e+32
4.87473e+32
8.33768e+32
3.54378e+33
1.2167e+34
3.17681e+34
6.9385e+34
1.25242e+35
2.06699e+35
3.25653e+35
5.4682e+35
9.23296e+35
1.6016e+36
3.00916e+36
6.11968e+36
1.29835e+37
2.77217e+37
5.87625e+37
1.22024e+38
2.47631e+38
5.00452e+38
7.40384e+38
4.84575e+38
1.69009e+39
-9.2732e+36
-8.34822e+38
-1.78352e+38
7.68037e+39
-6.61559e+39
1.79041e+40
-2.86854e+40
-7.43729e+40
-9.24406e+40
-1.46914e+41
-2.32388e+41
-2.99048e+41
4.88987e+41
-2.12609e+42
-4.59746e+42
-9.85521e+42
-2.26761e+43
-6.30182e+43
-9.45442e+44
3.91097e+45
1.28714e+45
-4.06891e+44
-1.45213e+44
-4.15249e+43
-8.05085e+42
-1.23495e+42
-9.3778e+40
1.63761e+42
4.46518e+42
-4.28327e+42
-3.08832e+41
-1.4949e+42
-1.68436e+42
-2.59481e+42
-5.66537e+42
1.06295e+44
-4.40783e+43
-7.91493e+43
-3.01299e+43
-2.38799e+43
-6.46248e+42
2.92678e+43
8.3471e+43
5.22967e+43
1.76559e+43
-6.01564e+43
-1.82223e+44
-6.67202e+44
-2.3543e+45
-1.66557e+46
3.55209e+47
1.45874e+47
5.098e+46
2.1049e+46
2.94582e+47
6.06289e+46
1.48318e+46
1.48212e+46
3.83421e+46
5.82537e+46
1.32531e+44
5.45768e+46
2.53271e+48
4.464e+49
3.29136e+49
1.55271e+49
4.96135e+48
-3.16791e+47
-3.74217e+48
4.63321e+49
5.36551e+49
-1.661e+50
1.20035e+49
1.05743e+48
-2.22945e+50
-5.54739e+50
-9.35913e+50
-1.34239e+51
-1.71714e+51
-1.93535e+51
-1.88339e+51
-1.42881e+51
-7.72184e+50
-3.39832e+50
-1.26213e+50
2.24593e+50
1.45503e+51
4.2325e+51
4.17063e+51
2.39992e+52
2.0728e+52
7.44197e+52
1.65573e+53
3.10161e+53
5.88283e+53
1.0895e+54
1.94461e+54
3.59065e+54
6.52099e+54
1.13056e+55
1.85234e+55
2.96743e+55
3.93208e+55
5.30639e+55
1.22842e+56
5.79386e+56
2.07409e+56
-1.13474e+56
-2.95569e+56
-6.5314e+56
-1.36247e+57
-2.37586e+57
-4.24207e+57
-7.28427e+57
-1.1687e+58
-1.66678e+58
-2.01111e+58
-4.32188e+57
7.94659e+58
1.3291e+59
2.68582e+59
3.5142e+58
5.74998e+59
-3.03161e+61
2.86304e+62
3.67357e+62
2.18488e+62
1.25652e+62
-1.11095e+60
5.11985e+60
-9.25415e+60
-2.66784e+61
-6.52193e+61
-1.48613e+62
-3.02645e+62
-5.76314e+62
-7.85285e+62
-1.46087e+62
6.93086e+61
1.10591e+62
8.75437e+61
6.5253e+60
-1.25471e+62
-1.04925e+62
1.29692e+62
4.72893e+62
-1.49146e+64
-1.43311e+64
-4.665e+64
-1.32417e+65
1.82847e+65
-2.27514e+65
5.70575e+65
6.68776e+66
-1.31432e+67
-2.62714e+67
-6.04103e+66
-1.23612e+66
2.26255e+67
3.94908e+66
2.80109e+67
1.06071e+68
2.1634e+68
5.95408e+68
1.30626e+69
2.3394e+69
3.55909e+69
3.02837e+69
1.02155e+70
1.18258e+71
-1.90789e+71
-2.05086e+71
-1.23347e+71
-1.60049e+71
4.49946e+70
4.09272e+69
-3.30447e+71
-2.56914e+71
-1.0613e+71
-4.08632e+70
-1.86432e+71
-2.96102e+71
-4.83814e+71
-6.59659e+71
-7.07569e+71
-1.54347e+71
-1.04972e+72
1.19804e+70
1.8969e+71
-2.32224e+71
-2.698e+71
1.48425e+72
2.34187e+72
1.03356e+73
3.71846e+73
3.64499e+73
-1.46499e+75
2.25798e+75
1.90331e+75
7.14076e+74
2.27573e+74
-4.82308e+73
-8.13197e+72
-3.29711e+74
-1.22974e+75
-2.32057e+75
-3.30781e+75
-9.94521e+75
-1.29779e+76
-1.68233e+76
-2.80593e+76
-4.61332e+76
8.2387e+76
2.60051e+76
-3.12641e+76
-3.34748e+76
4.3084e+77
1.21635e+77
-3.62078e+77
-5.48594e+76
1.83031e+77
3.06067e+77
3.30025e+77
2.82699e+77
1.53831e+77
-3.26579e+77
-1.47143e+78
-3.23286e+78
-8.87504e+78
-8.70846e+78
-1.99077e+79
-9.08342e+78
9.67437e+79
7.38828e+80
-1.63418e+81
1.54086e+81
9.99328e+80
2.91639e+81
1.46148e+81
-7.22953e+80
-6.6999e+80
-8.24037e+80
-5.22094e+80
-1.67784e+80
-5.40565e+79
-3.43126e+80
-3.03698e+80
-3.97157e+80
-4.42177e+80
-6.52195e+80
-1.06252e+80
-6.04699e+79
2.933e+80
-3.71596e+81
-7.67927e+81
5.83219e+81
8.33752e+81
1.41482e+82
8.47301e+81
4.18193e+81
2.05294e+81
1.5331e+82
4.84131e+82
-2.54002e+82
-9.69018e+82
-7.56292e+82
-7.27348e+82
-7.77874e+82
-2.95373e+82
-4.17356e+82
-4.21701e+82
5.8905e+83
6.68234e+82
6.82308e+83
4.37894e+83
1.11748e+84
-1.20629e+85
1.07037e+85
1.26097e+85
4.0399e+84
-6.54794e+83
-2.71263e+84
-1.39214e+85
-2.20764e+85
-3.70844e+85
-6.4423e+85
-1.14207e+86
-2.06747e+86
-3.79838e+86
-7.01977e+86
-1.28821e+87
-2.28248e+87
-3.74305e+87
-5.3113e+87
-5.37662e+87
5.65666e+86
2.24883e+88
8.82217e+88
2.47937e+89
6.10501e+89
1.38669e+90
2.97457e+90
6.10699e+90
1.21062e+91
2.33067e+91
4.37393e+91
8.02188e+91
1.44031e+92
2.53483e+92
4.37663e+92
7.41828e+92
1.2349e+93
2.01958e+93
3.2455e+93
5.12572e+93
7.95647e+93
1.21396e+94
1.82065e+94
2.68408e+94
3.88963e+94
5.5403e+94
7.7558e+94
1.06698e+95
1.44255e+95
1.91657e+95
2.50268e+95
3.2097e+95
4.04467e+95
5.0093e+95
6.0972e+95
7.2907e+95
8.56493e+95
9.88521e+95
1.12077e+96
1.24807e+96
1.36469e+96
1.46457e+96
1.54154e+96
1.58942e+96
1.60191e+96
1.57171e+96
1.48589e+96
1.30309e+96
9.23497e+95
3.91134e+95
-2.35366e+95
-7.7294e+95
-1.59367e+96
-1.95955e+96
2.43495e+96
1.00105e+97
2.64238e+97
6.86843e+97
1.67151e+98
3.78433e+98
8.11248e+98
1.66606e+99
3.30865e+99
6.38991e+99
1.20475e+100
2.22324e+100
4.02316e+100
7.14847e+100
1.24837e+101
2.14419e+101
3.62409e+101
6.02991e+101
9.8791e+101
1.59404e+102
2.53342e+102
3.96622e+102
6.11678e+102
9.29287e+102
1.39077e+103
2.05039e+103
2.97775e+103
4.2601e+103
6.0042e+103
8.33781e+103
1.14107e+104
1.53964e+104
2.04955e+104
2.6945e+104
3.50395e+104
4.51747e+104
5.79305e+104
7.42207e+104
9.55525e+104
1.24464e+105
1.65255e+105
2.25189e+105
3.16457e+105
4.59302e+105
6.86899e+105
1.05283e+106
1.64239e+106
2.58957e+106
4.10215e+106
6.49851e+106
1.02609e+107
1.61115e+107
2.51191e+107
3.88481e+107
5.95614e+107
9.04944e+107
1.36218e+108
2.03114e+108
2.99977e+108
4.38785e+108
6.35633e+108
9.11871e+108
1.29543e+109
1.82234e+109
2.53842e+109
3.50105e+109
4.78096e+109
6.46389e+109
8.65197e+109
1.14646e+110
1.50383e+110
1.95262e+110
2.5095e+110
3.19215e+110
4.01864e+110
5.00662e+110
6.17234e+110
7.52938e+110
9.08728e+110
1.085e+111
1.28144e+111
1.49683e+111
1.72891e+111
1.9742e+111
2.22779e+111
2.48316e+111
2.73176e+111
2.96256e+111
3.16114e+111
3.30841e+111
3.37897e+111
3.33987e+111
3.15206e+111
2.77937e+111
2.21184e+111
1.40259e+111
1.14458e+111
2.34347e+109
-1.51094e+111
-3.9119e+111
-7.23561e+111
-1.15208e+112
-1.68118e+112
-2.32227e+112
-3.08964e+112
-3.99575e+112
-5.04844e+112
-6.24976e+112
-7.59528e+112
-9.07348e+112
-1.06652e+113
-1.23436e+113
-1.40741e+113
-1.58151e+113
-1.75197e+113
-1.9137e+113
-2.06149e+113
-2.19022e+113
-2.29519e+113
-2.37234e+113
-2.4185e+113
-2.43162e+113
-2.41085e+113
-2.35666e+113
-2.2708e+113
-2.1562e+113
-2.01688e+113
-1.85765e+113
-1.68392e+113
-1.50138e+113
-1.3157e+113
-1.13228e+113
-9.55977e+112
-7.90934e+112
-6.40412e+112
-5.06705e+112
-3.91109e+112
-2.93943e+112
-2.14636e+112
-1.51871e+112
-1.0378e+112
-6.81739e+111
-4.27829e+111
-2.54384e+111
-1.39935e+111
-6.09774e+110
-1.33122e+110
7.43097e+109
1.97273e+110
1.60977e+110
9.18009e+109
2.56112e+109
1.25515e+109
8.2012e+108
5.08674e+108
2.93564e+108
1.88881e+108
2.20748e+108
3.01075e+107
-7.30196e+106
-8.52066e+106
-9.3121e+105
2.2908e+107
-9.66201e+106
-5.59464e+107
-6.96193e+107
-2.41652e+107
-7.84595e+106
-9.982e+105
-1.98921e+104
5.39617e+104
-2.41127e+104
-3.94798e+104
5.78194e+104
1.89045e+105
1.77063e+106
1.55245e+105
1.18573e+105
2.02007e+106
2.7848e+106
3.02297e+106
3.28793e+106
2.53962e+106
1.63792e+107
-9.14209e+26
2.02468e+25
3.74073e+25
2.3147e+25
-4.47128e+25
-1.9929e+25
1.5985e+24
-6.68408e+24
4.04641e+25
-4.35375e+25
-1.72391e+26
-1.5409e+25
9.70908e+26
2.11989e+26
2.96344e+27
4.56219e+27
9.19462e+27
1.68022e+28
2.85728e+28
3.73608e+28
6.00945e+28
-2.38688e+28
5.13221e+29
1.86759e+30
1.06344e+30
2.84678e+30
2.28774e+30
1.98546e+30
2.58868e+30
4.24172e+30
7.37084e+30
1.12283e+31
2.11111e+31
3.59261e+31
6.32307e+31
1.00433e+32
1.61005e+32
2.70556e+32
4.59538e+32
7.50751e+32
1.21926e+33
1.91343e+33
2.94676e+33
4.39962e+33
6.31479e+33
9.02067e+33
1.53013e+34
3.22107e+34
7.5936e+34
1.69393e+35
3.05943e+35
5.02017e+35
8.05872e+35
1.28443e+36
2.00705e+36
3.01922e+36
4.47665e+36
6.94189e+36
1.1526e+37
2.07087e+37
3.95144e+37
7.6405e+37
1.40249e+38
2.16833e+38
4.20045e+38
4.3926e+37
-2.90476e+38
2.28971e+38
4.1549e+38
-1.535e+38
3.36518e+38
-5.01201e+38
-7.29273e+39
-2.07613e+40
-1.95028e+40
1.34765e+39
-1.94813e+40
2.09395e+40
1.64444e+41
3.85296e+41
5.86409e+41
5.39806e+41
-7.59839e+41
-5.60339e+42
-1.287e+43
-1.0704e+44
-2.93131e+43
2.3912e+43
4.06768e+42
3.50098e+43
3.74866e+43
-2.72653e+42
-4.89782e+42
-1.61397e+42
6.28677e+41
1.33382e+42
-9.15772e+41
-2.47858e+42
-3.14732e+42
-1.7194e+42
3.04952e+40
-2.54012e+42
2.87582e+43
5.97629e+42
-6.39505e+42
-7.25579e+42
-1.00535e+42
-8.62611e+42
-5.39783e+40
2.05997e+44
-1.37851e+43
7.30528e+42
2.29736e+44
7.87371e+44
1.63471e+44
-2.20359e+45
-1.18215e+46
-8.08021e+45
4.15639e+45
8.26469e+45
1.30037e+46
5.81932e+47
1.9438e+47
4.35995e+46
4.28895e+44
2.2551e+47
1.55388e+47
-1.45038e+45
6.26534e+46
4.04091e+48
2.64508e+49
2.32909e+47
-1.12838e+49
-5.16422e+48
-2.28418e+48
4.49876e+47
4.03233e+49
-1.42835e+50
-1.31846e+50
7.57934e+50
2.73507e+50
1.03657e+50
1.86129e+49
-3.10019e+49
-6.70689e+49
-9.90162e+49
-1.25113e+50
-1.5006e+50
-6.80425e+49
-6.82837e+49
-1.52519e+50
-4.412e+50
-3.63922e+50
-8.1018e+50
-1.22745e+51
6.3535e+51
6.17426e+51
-1.0108e+52
-1.14556e+50
1.22546e+52
2.64845e+52
7.80273e+52
1.85773e+53
3.56391e+53
6.49478e+53
5.52573e+53
-1.42367e+52
-2.38728e+54
-1.47243e+55
-1.28752e+55
4.11138e+55
5.96281e+55
2.97238e+56
4.30799e+56
3.32805e+56
1.20704e+55
-6.2121e+56
4.94344e+56
-8.39441e+56
-2.58903e+57
-6.22247e+57
-1.33538e+58
-2.65393e+58
-4.94112e+58
-9.21002e+58
-1.54904e+59
-1.87844e+59
3.54116e+58
7.58867e+59
1.76144e+60
-3.3244e+60
1.28022e+62
1.27131e+62
6.51956e+61
2.46584e+61
1.24244e+61
1.32147e+61
1.95304e+61
2.84655e+61
3.75185e+61
4.60942e+61
6.11558e+61
9.89394e+61
1.64704e+62
2.92755e+62
4.12872e+62
5.23779e+62
6.08982e+62
6.54995e+62
6.44902e+62
6.16315e+62
3.2678e+62
-1.49021e+63
-8.45327e+63
-1.37804e+64
2.6588e+64
5.86708e+64
1.73283e+66
4.6259e+65
-1.37928e+66
-8.58846e+66
-3.33362e+67
-9.64809e+67
-2.42502e+67
-2.66974e+67
1.1853e+66
2.12484e+67
6.95812e+67
1.41795e+68
-4.50683e+67
2.09811e+68
7.54138e+68
1.5297e+69
1.62195e+69
-4.45177e+69
2.37791e+70
8.0834e+69
3.0854e+71
4.28815e+70
-4.22213e+71
-1.99721e+71
6.44735e+70
1.44879e+71
9.5383e+70
8.45559e+70
6.39399e+70
-5.48438e+70
-7.66654e+70
-1.35307e+71
-1.99328e+71
-8.62801e+71
-4.15491e+72
-5.91063e+70
2.46167e+71
2.60257e+71
5.10715e+71
1.45504e+72
3.16862e+72
5.40069e+72
9.14391e+72
2.02341e+73
1.53741e+73
1.9699e+73
3.70945e+73
6.58942e+73
8.7132e+73
9.87294e+73
1.05856e+74
9.64255e+73
4.82914e+73
-8.67803e+73
-4.57443e+74
-5.01694e+74
-1.32864e+74
-6.30574e+74
-2.0058e+76
-1.13936e+76
-9.69965e+75
-1.70874e+76
-3.94302e+76
5.7161e+76
4.81207e+76
1.02724e+77
7.66168e+77
8.06559e+77
-2.66902e+78
-7.99151e+75
3.4996e+77
-7.80258e+77
-8.70866e+77
4.55999e+76
7.65195e+77
8.83431e+77
1.60344e+77
-1.14226e+78
-3.70251e+78
-7.44875e+78
-4.69667e+78
-1.28287e+80
1.37745e+81
1.50025e+81
1.23576e+81
9.30907e+80
1.29197e+81
-1.4236e+81
-2.01433e+81
-9.17294e+80
-8.20592e+80
-4.4818e+80
-4.93033e+80
-2.61301e+80
1.0704e+80
1.97808e+80
5.2177e+80
5.43061e+80
3.47154e+80
1.09527e+79
1.43409e+80
-8.57657e+80
-2.77762e+80
-1.63072e+81
-3.39175e+81
-3.18311e+81
-2.60073e+81
-4.63246e+80
5.09095e+80
1.40131e+81
3.61036e+81
-2.70632e+82
-2.87524e+81
-8.89686e+82
-9.56458e+82
-7.17813e+82
-9.33151e+82
-1.28644e+83
-7.20088e+82
-8.44766e+82
-9.84042e+82
-8.37345e+82
-4.23398e+83
1.56142e+83
5.70235e+82
-3.39936e+83
-5.92372e+83
-5.64108e+83
-1.09639e+83
2.69753e+85
2.82186e+85
1.01332e+85
3.18859e+83
-5.75966e+84
-1.25358e+85
-1.91461e+85
-2.78438e+85
-3.7471e+85
-4.8779e+85
-6.27287e+85
-7.16073e+85
-2.23623e+85
-5.25994e+85
-1.25981e+86
-2.4267e+87
-7.02591e+86
1.44553e+88
3.19787e+88
5.711e+88
1.01718e+89
1.83957e+89
3.28766e+89
5.92645e+89
1.07167e+90
1.92367e+90
3.41465e+90
5.98714e+90
1.0363e+91
1.76994e+91
2.98185e+91
4.95376e+91
8.11279e+91
1.30934e+92
2.0818e+92
3.25984e+92
5.02626e+92
7.63165e+92
1.14166e+93
1.68428e+93
2.45276e+93
3.52551e+93
4.98968e+93
6.93533e+93
9.46627e+93
1.27482e+94
1.7252e+94
2.24327e+94
2.79463e+94
3.56725e+94
4.30953e+94
5.18911e+94
6.16274e+94
7.20823e+94
8.29432e+94
9.38341e+94
1.04306e+95
1.13829e+95
1.21824e+95
1.2765e+95
1.30561e+95
1.29736e+95
1.24521e+95
1.15454e+95
1.1381e+95
1.53483e+95
5.54003e+95
3.76295e+95
-1.00996e+96
3.0573e+96
-1.38494e+96
-7.16586e+96
-1.10302e+96
1.20266e+97
2.81184e+97
5.09608e+97
8.98904e+97
1.64624e+98
3.01516e+98
5.44516e+98
9.71066e+98
1.71227e+99
2.98471e+99
5.14138e+99
8.74972e+99
1.47084e+100
2.44192e+100
4.00345e+100
6.48066e+100
1.03569e+101
1.63385e+101
2.54393e+101
3.90887e+101
5.92644e+101
8.86496e+101
1.30813e+102
1.90402e+102
2.73345e+102
3.87048e+102
5.40573e+102
7.44817e+102
1.01271e+103
1.35957e+103
1.80372e+103
2.36791e+103
3.0821e+103
3.98887e+103
5.15331e+103
6.68071e+103
8.74662e+103
1.1647e+104
1.5879e+104
2.22694e+104
3.21744e+104
4.77897e+104
7.26249e+104
1.12224e+105
1.75249e+105
2.75079e+105
4.32166e+105
6.77432e+105
1.05714e+106
1.63974e+106
2.52549e+106
3.85957e+106
5.84997e+106
8.79132e+106
1.30963e+107
1.9336e+107
2.82919e+107
4.10199e+107
5.89293e+107
8.38768e+107
1.18277e+108
1.65224e+108
2.28635e+108
3.13383e+108
4.25451e+108
5.72052e+108
7.61742e+108
1.00447e+109
1.3116e+109
1.69576e+109
2.1707e+109
2.75092e+109
3.45118e+109
4.28582e+109
5.26794e+109
6.40841e+109
7.71467e+109
9.18952e+109
1.08297e+110
1.26246e+110
1.45545e+110
1.65895e+110
1.86873e+110
2.07916e+110
2.28293e+110
2.4707e+110
2.63068e+110
2.748e+110
2.80349e+110
2.77089e+110
2.61026e+110
2.25191e+110
1.68083e+110
5.00246e+109
-1.62436e+109
-8.9568e+109
-2.16543e+110
-4.13445e+110
-6.88614e+110
-1.04467e+111
-1.48689e+111
-2.02466e+111
-2.66872e+111
-3.42821e+111
-4.3088e+111
-5.31173e+111
-6.4331e+111
-7.6633e+111
-8.98661e+111
-1.03809e+112
-1.1818e+112
-1.3264e+112
-1.46805e+112
-1.60259e+112
-1.72577e+112
-1.8334e+112
-1.9216e+112
-1.98703e+112
-2.02706e+112
-2.03992e+112
-2.02487e+112
-1.98219e+112
-1.91324e+112
-1.82033e+112
-1.70666e+112
-1.57613e+112
-1.4331e+112
-1.28223e+112
-1.12815e+112
-9.75317e+111
-8.27779e+111
-6.89004e+111
-5.61766e+111
-4.48066e+111
-3.49099e+111
-2.65261e+111
-1.9621e+111
-1.40951e+111
-9.79469e+110
-6.53985e+110
-4.13529e+110
-2.57313e+110
-2.24583e+110
-1.96781e+110
-1.27614e+109
6.44752e+109
6.4682e+109
4.46217e+109
-1.6423e+109
-3.55703e+108
1.05224e+107
1.81293e+108
2.49052e+108
1.89279e+108
1.46329e+108
1.96449e+108
1.23432e+108
3.34308e+107
5.14777e+106
-3.79721e+106
-1.27925e+106
-2.42322e+106
-9.8246e+105
1.13824e+106
1.26074e+106
6.66815e+105
2.95928e+105
-1.09404e+104
-1.49649e+105
-1.53037e+105
-3.01693e+104
-1.41458e+105
4.61317e+105
1.24384e+106
4.65409e+105
3.27722e+105
2.78582e+105
2.55774e+105
2.52367e+105
7.67519e+104
1.91628e+106
-1.25594e+26
-2.5612e+25
7.68055e+24
-8.55291e+24
1.48512e+25
2.17774e+25
3.3632e+25
2.65012e+25
-6.00245e+25
-2.27464e+26
-4.93026e+26
-1.35908e+26
-2.33798e+26
8.75486e+25
1.96499e+27
1.97446e+27
6.64774e+27
1.74382e+28
3.46181e+28
1.99325e+28
1.22268e+28
2.54222e+28
-6.46868e+29
-5.34447e+29
-1.01777e+30
-2.6731e+29
3.81089e+29
6.56002e+29
1.00486e+30
1.69368e+30
2.9473e+30
4.52146e+30
8.60604e+30
1.36316e+31
2.1915e+31
3.15302e+31
6.30934e+31
1.11775e+32
1.15664e+32
-3.15424e+33
-7.90429e+33
-1.67732e+34
-3.42162e+34
-6.91978e+34
-1.38046e+35
-2.73021e+35
-5.27347e+35
-9.86139e+35
-1.49175e+36
-1.11716e+36
-8.31156e+35
-1.17003e+36
-2.21333e+36
-4.32612e+36
-8.0313e+36
-1.48879e+37
-2.7229e+37
-4.84826e+37
-8.32268e+37
-1.39836e+38
-2.22828e+38
-3.41193e+38
-4.58162e+38
-4.35206e+38
-3.81873e+38
-2.18377e+38
-8.11857e+38
-1.63588e+39
-2.62221e+39
-4.02838e+39
-5.91446e+39
-7.8938e+39
-7.37324e+39
-1.25394e+40
-7.06736e+40
-2.66606e+41
-1.57606e+41
-2.26684e+41
-1.71241e+41
-3.54959e+41
4.18843e+38
3.77381e+41
2.54163e+41
-1.52055e+42
1.21847e+42
-1.76084e+43
-1.07394e+44
-2.63883e+43
3.53034e+43
5.2359e+43
7.51038e+43
7.65456e+43
5.98412e+43
3.1537e+43
1.54689e+43
6.00748e+42
1.594e+42
-9.82178e+41
-4.67813e+41
9.73494e+41
5.51873e+41
2.80701e+42
1.69689e+43
2.2237e+43
-5.12975e+41
1.00205e+43
1.80095e+42
-9.45709e+42
6.82554e+43
-1.36623e+46
-2.516e+44
-3.32341e+45
-1.97707e+45
-1.57358e+45
-5.91635e+45
-1.04441e+46
-1.12517e+46
-6.14903e+45
-1.80543e+45
1.50576e+45
4.32455e+45
1.11681e+48
4.0334e+47
1.09229e+47
2.60586e+46
2.19961e+46
-1.90023e+47
-3.92287e+47
-3.34034e+47
5.8972e+47
1.99573e+48
3.41244e+48
-5.61817e+47
1.7613e+49
2.76794e+48
1.47943e+49
2.2079e+49
-1.48883e+49
3.55596e+49
-1.54175e+50
5.6458e+49
4.49911e+49
3.44942e+49
3.18398e+49
3.22012e+49
5.49032e+49
6.39026e+49
-1.0416e+50
-1.89556e+50
-1.52551e+50
-1.73001e+50
-5.15618e+49
2.50491e+50
2.15595e+50
-5.52717e+50
-1.11704e+51
-4.17156e+51
5.63288e+51
1.89166e+52
3.7887e+52
7.09349e+52
1.53907e+53
3.12803e+53
5.3272e+53
1.09394e+54
1.89347e+54
2.8227e+54
3.47894e+54
5.78833e+54
6.16549e+54
-1.06778e+54
3.76225e+55
-1.19993e+55
-3.6563e+56
-8.12531e+55
-2.69965e+55
-9.92668e+55
-3.0859e+56
-2.71054e+56
-2.34543e+56
-1.01804e+57
-1.58943e+57
-3.11064e+57
-3.14408e+57
-3.92295e+57
-5.82117e+56
3.45049e+58
1.54287e+59
5.38906e+59
1.08456e+60
1.01935e+60
2.08794e+61
2.8048e+61
1.70126e+61
6.84643e+60
5.24343e+60
8.9078e+60
1.58753e+61
2.67184e+61
4.29864e+61
6.78848e+61
1.09026e+62
1.78317e+62
2.91394e+62
4.55938e+62
6.60683e+62
8.9652e+62
1.13526e+63
1.34525e+63
1.41513e+63
1.29022e+63
7.0608e+62
-1.38448e+63
3.11032e+63
6.20919e+64
6.58137e+64
3.81438e+64
4.20979e+65
-4.43413e+65
8.67582e+65
2.63121e+66
-1.10574e+65
3.24312e+66
7.05612e+66
-7.10586e+67
-5.88605e+67
-1.56909e+67
-2.84373e+68
-7.28044e+67
5.26773e+67
1.05868e+68
2.8078e+67
5.13589e+68
5.89602e+69
1.95e+69
-1.16035e+70
2.05666e+70
5.52481e+71
3.22114e+71
2.70531e+71
-3.67927e+70
-3.40504e+71
-1.48743e+72
-9.09666e+71
-3.36035e+71
-1.18927e+71
-7.22128e+70
-2.69059e+70
-1.22968e+70
8.07468e+69
3.70146e+70
5.41169e+71
2.90624e+71
5.12601e+71
4.55812e+71
9.44255e+71
1.96162e+72
3.62304e+72
5.9611e+72
9.41946e+72
1.68616e+73
2.01421e+73
2.86555e+73
5.31585e+73
8.70619e+73
1.27134e+74
1.71636e+74
2.07664e+74
2.02936e+74
7.73936e+73
-3.68152e+74
-1.65526e+75
-1.23238e+75
-2.54314e+75
1.79403e+76
-2.02718e+76
-5.81806e+76
-1.20862e+77
-1.92083e+77
-9.2088e+76
-7.21038e+76
-8.33111e+76
-1.21476e+77
-1.77714e+77
-1.99003e+77
-2.28098e+76
-3.39568e+77
-5.83325e+77
-7.26692e+77
-6.41365e+77
3.1899e+77
1.357e+78
2.11785e+78
2.24982e+78
1.81929e+78
-7.3333e+78
-4.74311e+78
-5.76251e+78
1.55704e+80
-1.14756e+80
4.00032e+80
1.5955e+81
4.61822e+80
1.21433e+80
-8.82669e+80
-1.29689e+81
-2.78735e+80
-3.12168e+80
2.84608e+79
-7.4259e+79
-1.27685e+80
-1.03244e+80
-6.96356e+80
8.64885e+79
5.94249e+80
5.05707e+80
2.87367e+80
1.75979e+80
-4.44416e+80
-1.20252e+81
-9.9229e+80
-8.73553e+80
3.67993e+81
7.07727e+81
3.81209e+81
2.97133e+81
4.66043e+81
6.20106e+81
1.17767e+82
1.41072e+82
1.08447e+82
1.98079e+82
2.46053e+81
-4.70649e+82
-1.26651e+83
-1.41824e+83
-1.11553e+83
-3.40185e+82
-6.72475e+83
-6.79438e+83
1.886e+84
6.47083e+84
1.65863e+84
-7.68901e+83
-7.58967e+83
-2.69522e+83
2.66628e+84
-1.786e+84
-3.89412e+84
-1.15216e+85
-6.96889e+84
-8.13223e+84
-1.33719e+85
-2.59451e+85
-4.46042e+85
-7.66999e+85
-1.32532e+86
-2.3746e+86
-4.30625e+86
-8.00465e+86
-1.54116e+87
-3.18146e+87
-4.00389e+87
-1.26827e+88
5.6377e+87
-2.65282e+88
-5.16607e+88
1.2395e+89
4.27879e+89
5.63977e+89
5.11774e+89
4.06893e+89
2.48948e+89
-8.54916e+88
-8.21191e+89
-2.33266e+90
-5.23763e+90
-1.05299e+91
-1.97533e+91
-3.52053e+91
-6.01298e+91
-9.88173e+91
-1.56541e+92
-2.39493e+92
-3.55662e+92
-5.193e+92
-7.61912e+92
-1.13646e+93
-1.69266e+93
-2.29311e+93
-3.12004e+93
-4.51252e+93
-5.06862e+93
-3.05258e+93
-6.85697e+93
-2.59236e+92
-1.1802e+94
-1.71465e+94
-2.13907e+94
-2.51954e+94
-2.88295e+94
-3.23583e+94
-3.56323e+94
-3.82817e+94
-4.03549e+94
-4.17466e+94
-4.25704e+94
-4.18411e+94
-8.65958e+93
8.08296e+94
-1.49979e+95
-3.09512e+95
-3.05292e+95
-6.79459e+95
-1.10455e+96
-3.09835e+95
-3.29938e+96
-1.03788e+97
-1.49794e+96
-4.69667e+96
-1.52401e+97
1.31488e+97
3.06411e+97
7.31665e+97
1.0206e+98
1.11757e+98
1.03957e+98
5.48771e+97
-8.89166e+97
-4.22872e+98
-1.11325e+99
-2.44207e+99
-4.87441e+99
-9.15697e+99
-1.64586e+100
-2.85647e+100
-4.81388e+100
-7.90606e+100
-1.26849e+101
-1.99169e+101
-3.06399e+101
-4.62241e+101
-6.84298e+101
-9.94552e+101
-1.41962e+102
-1.99071e+102
-2.74311e+102
-3.71534e+102
-4.94782e+102
-6.48166e+102
-8.35814e+102
-1.06201e+103
-1.33173e+103
-1.65194e+103
-2.03422e+103
-2.5e+103
-3.09076e+103
-3.88779e+103
-5.04835e+103
-6.86786e+103
-9.88028e+103
-1.50142e+104
-2.38329e+104
-3.89008e+104
-6.43411e+104
-1.06669e+105
-1.76026e+105
-2.87965e+105
-4.66014e+105
-7.45273e+105
-1.17741e+106
-1.83745e+106
-2.83288e+106
-4.31565e+106
-6.49763e+106
-9.67026e+106
-1.42288e+107
-2.07021e+107
-2.97869e+107
-4.23886e+107
-5.96654e+107
-8.30758e+107
-1.14427e+108
-1.5592e+108
-2.10186e+108
-2.80314e+108
-3.69853e+108
-4.82786e+108
-6.23475e+108
-7.96554e+108
-1.00678e+109
-1.25882e+109
-1.55701e+109
-1.90499e+109
-2.30542e+109
-2.75953e+109
-3.26679e+109
-3.82443e+109
-4.42716e+109
-5.06675e+109
-5.73164e+109
-6.40637e+109
-7.07053e+109
-7.69679e+109
-8.24726e+109
-8.66832e+109
-8.88676e+109
-8.81811e+109
-8.40799e+109
-7.70118e+109
-6.75876e+109
-4.94377e+109
-2.24065e+109
4.66658e+108
5.39933e+109
1.04781e+110
1.81931e+110
2.85867e+110
4.16882e+110
5.78273e+110
7.7372e+110
1.00602e+111
1.27678e+111
1.58632e+111
1.93346e+111
2.31526e+111