/*--------------------------------*- C++ -*----------------------------------*\
  =========                 |
  \\      /  F ield         | OpenFOAM: The Open Source CFD Toolbox
   \\    /   O peration     | Website:  https://openfoam.org
    \\  /    A nd           | Version:  9
     \\/     M anipulation  |
\*---------------------------------------------------------------------------*/
FoamFile
{
    format      ascii;
    class       volScalarField;
    location    "1";
    object      f_3;
}
// * * * * * * * * * * * * * * * * * * * * * * * * * * * * * * * * * * * * * //

dimensions      [1 -3 0 0 0 0 0];

internalField   nonuniform List<scalar> 
120000
(
2.92398e+26
5.97385e+26
7.01733e+26
3.49458e+26
-8.49146e+26
-2.73231e+27
-1.46101e+27
4.14149e+27
6.22299e+27
1.05908e+28
1.84631e+28
3.08523e+28
5.06519e+28
9.19072e+28
1.50369e+29
2.43813e+29
3.97475e+29
6.5318e+29
1.1026e+30
1.94879e+30
3.61454e+30
6.89121e+30
1.30144e+31
2.28989e+31
3.6627e+31
5.77299e+31
9.36188e+31
1.56882e+32
2.59263e+32
4.06355e+32
6.24587e+32
1.00139e+33
1.69524e+33
2.84155e+33
4.58752e+33
7.3512e+33
1.20638e+34
2.05116e+34
3.53459e+34
6.02999e+34
1.01265e+35
1.68386e+35
2.78548e+35
4.58086e+35
7.49236e+35
1.21718e+36
1.96132e+36
3.12819e+36
4.93013e+36
7.67048e+36
1.17785e+37
1.79213e+37
2.70548e+37
4.04924e+37
6.00037e+37
8.81848e+37
1.28246e+38
1.8342e+38
2.55367e+38
3.39756e+38
4.16984e+38
4.36954e+38
3.00655e+38
-1.59117e+38
-1.60683e+39
-1.03073e+40
-3.5851e+40
-7.64055e+40
-1.23285e+41
-1.90804e+41
-2.53423e+41
-2.02163e+41
-9.59638e+39
8.73131e+40
3.28466e+41
1.06564e+42
2.99572e+42
8.1495e+42
2.27088e+43
5.84182e+43
1.19584e+44
2.51179e+44
5.36241e+44
1.12509e+45
2.27065e+45
4.13783e+45
5.51561e+45
-1.37437e+44
2.60033e+43
4.01538e+43
8.06102e+43
-5.79709e+43
2.65423e+43
-3.03372e+41
-2.08657e+42
1.7453e+42
1.95289e+42
6.081e+43
1.83013e+44
3.04791e+44
6.57602e+44
-4.69415e+43
-1.75122e+44
-4.0323e+44
-9.19325e+43
5.14742e+43
3.55051e+44
1.30699e+45
1.64789e+45
2.39284e+45
3.46893e+45
5.2266e+45
8.05701e+45
1.26588e+46
2.04006e+46
3.46669e+46
6.22921e+46
9.59144e+46
1.44782e+47
2.41495e+47
4.19564e+47
8.00835e+47
1.03198e+48
1.45826e+48
1.99772e+48
1.31942e+48
8.48993e+46
-4.20734e+47
-6.03953e+46
-1.05761e+46
2.49002e+48
-5.79369e+49
-1.05813e+50
-2.01776e+50
-3.83285e+50
-6.50441e+50
-7.88765e+50
-4.93186e+50
-3.12143e+50
4.55664e+50
1.74839e+51
4.22547e+51
6.25977e+51
8.28059e+51
9.74617e+51
9.99177e+51
8.29087e+51
4.10938e+51
-2.64044e+51
-1.02408e+52
-1.16982e+52
-1.06119e+52
9.55707e+51
6.52927e+52
1.1431e+53
2.68175e+53
5.08939e+53
9.70392e+53
2.15205e+54
4.32898e+54
8.39535e+54
1.61768e+55
3.11536e+55
5.94893e+55
1.09062e+56
2.29882e+56
4.80028e+56
9.72471e+56
1.9439e+57
3.96277e+57
8.32431e+57
1.70419e+58
2.88236e+58
4.42666e+58
6.62464e+58
9.8479e+58
1.4233e+59
2.00568e+59
2.75247e+59
3.68009e+59
4.82829e+59
6.36156e+59
8.88325e+59
1.40508e+60
2.48967e+60
4.41073e+60
6.84431e+60
8.34932e+60
4.74543e+60
-1.39893e+61
-7.0419e+61
-2.11373e+62
-1.05308e+61
-3.29515e+61
-7.51348e+61
-1.10327e+62
-1.81057e+62
-2.14018e+62
-2.9573e+62
-3.7641e+62
-4.40635e+62
-5.13191e+62
-6.36421e+62
-8.50978e+62
-2.85933e+62
2.67142e+64
9.63603e+64
2.58993e+65
6.26194e+65
1.43259e+66
3.15721e+66
6.73367e+66
1.38436e+67
2.70315e+67
4.7527e+67
7.58871e+67
8.11504e+67
2.36654e+68
-4.15755e+67
-5.10276e+67
-3.54001e+67
1.57297e+66
-1.29668e+68
3.28891e+68
6.58592e+68
1.2317e+69
2.23616e+69
4.5213e+69
8.63989e+69
1.58663e+70
2.67342e+70
3.85649e+70
5.36267e+70
6.63443e+70
6.98752e+70
2.02193e+70
-2.87444e+71
-1.04459e+72
-1.9096e+72
-8.2789e+71
-2.05863e+72
-2.71862e+72
-2.97067e+72
-3.25149e+72
-4.69168e+72
-1.13001e+73
-2.16234e+73
-3.70573e+73
-6.4487e+73
-9.16827e+73
-8.59895e+73
-2.84235e+73
1.64416e+73
-9.53191e+72
-5.05081e+73
-1.57852e+74
-2.45206e+74
-3.42714e+74
-3.87437e+74
-2.87464e+74
-8.42435e+73
-3.36742e+72
2.05079e+73
-1.06636e+75
-2.15308e+75
4.05772e+75
5.62421e+75
9.78355e+75
1.81625e+76
3.50503e+76
6.94288e+76
1.38993e+77
2.79003e+77
5.5027e+77
1.05183e+78
1.94241e+78
3.37372e+78
5.43606e+78
8.54612e+78
1.09064e+79
4.8342e+78
-2.11786e+78
3.18786e+78
-4.61815e+78
-6.51489e+78
-7.49245e+78
-5.95001e+78
-6.9331e+78
-7.006e+78
-5.31689e+78
-2.18268e+78
5.0747e+78
1.82956e+79
3.21835e+79
2.73379e+79
-2.94108e+79
-1.77651e+80
-3.91383e+80
-6.6138e+80
-8.07891e+80
6.99056e+80
3.62269e+81
-8.24929e+81
-5.82677e+81
-3.01018e+81
8.2109e+80
2.92114e+81
3.633e+81
9.77485e+81
1.80156e+82
1.9965e+82
1.73867e+82
-1.18252e+81
3.76173e+81
4.11727e+81
3.56934e+81
5.59754e+81
1.62249e+82
3.56782e+82
5.73856e+82
8.18845e+82
9.0136e+82
7.75957e+82
3.07205e+82
-1.50938e+82
-1.25969e+82
4.47782e+81
5.64248e+82
8.66286e+82
1.95665e+83
2.08784e+83
1.98829e+83
2.12633e+83
3.7949e+83
7.72688e+83
1.46415e+84
2.20638e+84
2.48663e+84
2.59817e+84
1.72692e+84
-2.76871e+84
-1.64069e+85
-5.27148e+85
-1.21242e+86
-9.99222e+85
1.58933e+85
9.40179e+84
3.78975e+83
-9.37151e+84
8.24089e+85
1.25133e+86
2.20418e+86
5.26088e+86
9.7008e+86
1.31756e+87
1.11026e+87
-1.26429e+87
-9.93909e+87
-3.48218e+88
-9.78903e+88
-2.45794e+89
-5.74369e+89
-1.27511e+90
-2.72076e+90
-5.62135e+90
-1.13018e+91
-2.21798e+91
-4.25925e+91
-8.01642e+91
-1.48056e+92
-2.68584e+92
-4.78884e+92
-8.3963e+92
-1.44813e+93
-2.45749e+93
-4.10409e+93
-6.74568e+93
-1.09129e+94
-1.73767e+94
-2.72331e+94
-4.20064e+94
-6.37672e+94
-9.5261e+94
-1.40035e+95
-2.0255e+95
-2.88244e+95
-4.03542e+95
-5.55752e+95
-7.5284e+95
-1.00306e+96
-1.31441e+96
-1.69392e+96
-2.14663e+96
-2.67514e+96
-3.27839e+96
-3.95057e+96
-4.67978e+96
-5.45099e+96
-6.24171e+96
-7.02508e+96
-7.76983e+96
-8.44134e+96
-9.00258e+96
-9.41481e+96
-9.63775e+96
-9.62975e+96
-9.3498e+96
-8.76713e+96
-7.89407e+96
-6.87708e+96
-6.21755e+96
-7.21722e+96
-1.28285e+97
-2.93096e+97
-6.9644e+97
-1.60355e+98
-3.54108e+98
-7.54035e+98
-1.55574e+99
-3.12829e+99
-6.14241e+99
-1.18106e+100
-2.22821e+100
-4.13036e+100
-7.53021e+100
-1.35127e+101
-2.38804e+101
-4.15804e+101
-7.13555e+101
-1.20714e+102
-2.0135e+102
-3.31173e+102
-5.37154e+102
-8.59199e+102
-1.35531e+103
-2.10827e+103
-3.23399e+103
-4.89164e+103
-7.29545e+103
-1.07278e+104
-1.55531e+104
-2.22317e+104
-3.13326e+104
-4.35452e+104
-5.96912e+104
-8.07387e+104
-1.0783e+105
-1.42342e+105
-1.86002e+105
-2.41143e+105
-3.11157e+105
-4.01342e+105
-5.2036e+105
-6.82717e+105
-9.1285e+105
-1.25175e+106
-1.76754e+106
-2.572e+106
-3.84631e+106
-5.88043e+106
-9.13269e+106
-1.4319e+107
-2.25446e+107
-3.54969e+107
-5.57234e+107
-8.70278e+107
-1.35028e+108
-2.07929e+108
-3.17582e+108
-4.80916e+108
-7.2183e+108
-1.07368e+109
-1.58248e+109
-2.3109e+109
-3.34329e+109
-4.79175e+109
-6.80326e+109
-9.56801e+109
-1.33287e+110
-1.83905e+110
-2.51315e+110
-3.40128e+110
-4.55872e+110
-6.05059e+110
-7.95215e+110
-1.03485e+111
-1.33339e+111
-1.70095e+111
-2.14812e+111
-2.68552e+111
-3.3233e+111
-4.07051e+111
-4.93437e+111
-5.91935e+111
-7.02634e+111
-8.25158e+111
-9.58569e+111
-1.10126e+112
-1.25082e+112
-1.40392e+112
-1.5561e+112
-1.70151e+112
-1.8325e+112
-1.93908e+112
-2.00835e+112
-2.0241e+112
-1.96737e+112
-1.81896e+112
-1.56456e+112
-1.20024e+112
-7.31802e+111
-1.65308e+111
4.74931e+111
1.84541e+112
3.44015e+112
5.61939e+112
8.38411e+112
1.18101e+113
1.59536e+113
2.0885e+113
2.66608e+113
3.3314e+113
4.08448e+113
4.92153e+113
5.83454e+113
6.81101e+113
7.8339e+113
8.88186e+113
9.92969e+113
1.09492e+114
1.19105e+114
1.27829e+114
1.35368e+114
1.41454e+114
1.45855e+114
1.48397e+114
1.48969e+114
1.4753e+114
1.44117e+114
1.38839e+114
1.31875e+114
1.23462e+114
1.13885e+114
1.0346e+114
9.25188e+113
8.1392e+113
7.0393e+113
5.98048e+113
4.98676e+113
4.07716e+113
3.26508e+113
2.5582e+113
1.95865e+113
1.46352e+113
1.06574e+113
7.55159e+112
5.19738e+112
3.46688e+112
2.2327e+112
1.37277e+112
7.76213e+111
3.48485e+111
2.27922e+110
4.53712e+109
3.94352e+109
3.08198e+109
3.73566e+109
4.97376e+109
-4.2073e+108
1.43769e+106
3.8096e+107
-3.49015e+107
-2.00118e+108
-2.62865e+108
-6.10693e+107
-5.30535e+107
-9.43196e+106
-3.24451e+106
6.25155e+106
9.47162e+106
1.8091e+107
5.60491e+107
-2.25578e+105
5.41351e+105
1.11174e+106
-1.16184e+106
-7.51498e+105
1.77251e+107
2.6777e+107
3.60521e+107
1.70461e+107
-7.1315e+106
-3.3325e+106
-8.40524e+106
-1.39243e+107
-1.65627e+107
-1.79648e+107
-1.88982e+107
-1.95043e+107
-2.01835e+107
6.23679e+25
2.2809e+26
3.6213e+26
7.35801e+26
1.99987e+27
-1.75678e+27
-4.86801e+27
-1.13751e+28
1.64449e+28
2.5226e+28
3.54835e+28
3.75717e+28
2.26092e+28
4.57918e+28
6.5376e+28
9.57519e+28
1.40871e+29
1.95481e+29
2.43166e+29
2.77787e+29
2.92593e+29
2.68082e+29
3.52132e+29
3.9443e+29
6.66616e+29
1.86896e+30
7.0329e+30
1.61473e+31
3.24948e+31
5.86185e+31
1.08113e+32
1.99951e+32
3.26562e+32
4.31426e+32
6.19664e+32
1.03908e+33
1.71772e+33
2.88541e+33
4.8066e+33
7.92593e+33
1.32918e+34
2.27051e+34
3.92088e+34
6.8436e+34
1.22105e+35
2.23908e+35
4.17456e+35
7.74802e+35
1.40933e+36
2.48793e+36
4.28552e+36
7.44102e+36
1.32327e+37
2.41214e+37
4.4568e+37
8.38825e+37
1.60002e+38
3.05755e+38
5.79376e+38
1.08082e+39
1.97219e+39
3.49806e+39
5.96786e+39
6.5986e+39
-2.74029e+38
-7.49087e+39
-9.09916e+39
-1.77965e+40
-2.58412e+40
-3.78872e+40
-6.45927e+40
-1.5254e+41
-4.04766e+41
-8.44024e+41
-1.15114e+42
-1.54217e+42
-1.97692e+42
-2.06116e+42
-1.26758e+42
1.91115e+42
2.16272e+43
9.12801e+43
2.2552e+44
4.72588e+44
8.94375e+44
1.36008e+45
6.54918e+44
-1.84329e+43
1.82524e+43
-1.05867e+43
-1.10248e+43
-1.2506e+43
-1.67789e+43
-7.08e+42
-1.44754e+42
3.11219e+42
-2.75516e+42
-1.56315e+42
-3.38615e+43
-8.99175e+43
-2.3767e+44
-5.9909e+44
-1.53009e+45
-1.04544e+44
1.41494e+43
2.68171e+43
1.83681e+43
4.75862e+43
-5.43705e+43
-4.83456e+44
-9.30211e+44
-3.19748e+45
-7.27503e+45
-1.39799e+46
-2.79301e+46
-5.35368e+46
-8.60337e+46
-7.20883e+46
1.8162e+46
3.84811e+46
1.01962e+47
3.17069e+47
3.40672e+46
2.01882e+46
3.75021e+46
2.38764e+46
4.38413e+46
-5.27081e+46
-1.87447e+47
-6.06879e+47
-2.73866e+48
-2.8791e+47
1.88841e+48
5.62571e+48
1.16075e+49
6.9001e+49
1.86213e+50
5.43742e+50
7.10398e+50
-3.52278e+49
-1.4986e+50
-4.98737e+50
-8.78507e+50
-1.30374e+51
-1.69369e+51
-1.9124e+51
-1.78662e+51
-1.16323e+51
1.17052e+50
2.50469e+51
7.9348e+51
2.00849e+52
5.2638e+52
1.18397e+53
2.36529e+53
4.77505e+53
9.65805e+53
1.82728e+54
3.53322e+54
6.23143e+54
1.12372e+55
2.00699e+55
3.50929e+55
6.02691e+55
1.00749e+56
1.63046e+56
2.51749e+56
3.67668e+56
4.91026e+56
5.48849e+56
4.25151e+56
9.80308e+55
-3.96461e+56
-6.1519e+57
-9.60581e+57
-1.62366e+58
-2.79973e+58
-4.62783e+58
-7.32517e+58
-1.11917e+59
-1.60598e+59
-2.13684e+59
-2.6094e+59
-2.82458e+59
-2.63641e+59
-2.48769e+59
-2.37312e+59
1.72195e+59
2.28763e+60
7.52581e+60
5.28069e+61
6.81019e+61
-9.0266e+59
1.13577e+60
-1.15687e+61
-4.86812e+61
-8.41425e+61
-6.42719e+62
-1.23957e+63
-2.34645e+63
-4.13462e+63
-6.60839e+63
-7.01371e+63
-1.82869e+62
5.98777e+63
3.9121e+63
4.52546e+63
3.85567e+63
9.20101e+62
-6.83414e+63
-2.53922e+64
-6.87398e+64
-1.65773e+65
-3.47464e+65
-5.28271e+65
-4.70915e+65
-1.22096e+65
-9.26567e+65
-4.36035e+66
-3.41689e+66
4.49639e+67
3.74064e+68
4.11346e+68
5.99883e+67
5.25956e+67
2.25962e+68
1.51354e+69
3.39823e+69
7.07599e+69
1.42435e+70
2.77739e+70
5.01323e+70
8.42979e+70
1.29564e+71
2.05827e+71
2.5494e+71
1.86588e+70
-1.97967e+71
2.6352e+71
3.00832e+71
2.44585e+71
3.839e+71
1.63507e+71
6.04177e+70
1.3261e+71
5.97172e+70
-8.85119e+70
-1.73169e+71
-5.94814e+70
1.65641e+72
4.46911e+72
7.8469e+72
9.22038e+72
2.63388e+73
7.60158e+73
1.87218e+74
4.69078e+74
1.09106e+75
2.47254e+75
5.54255e+75
1.27135e+76
2.18851e+76
6.2529e+76
1.6995e+77
4.82217e+77
3.47806e+76
-1.74068e+74
-1.20139e+75
-3.80491e+75
-1.17179e+76
-2.4407e+76
-4.53639e+76
-7.64383e+76
-1.30217e+77
-2.18898e+77
-3.3517e+77
-5.1952e+77
-7.11516e+77
-7.61167e+77
-5.76148e+77
-5.04114e+77
-5.05732e+77
-4.09443e+77
-1.1094e+77
-6.70439e+77
-2.4542e+78
-5.43298e+78
-7.93904e+78
-1.16699e+79
-1.61194e+79
-2.23617e+79
-3.21295e+79
-4.79547e+79
-7.21841e+79
-1.0702e+80
-1.5325e+80
-1.8937e+80
-2.23865e+80
-1.55769e+80
8.83896e+79
5.26452e+80
-1.32829e+81
1.56911e+81
9.19356e+80
1.60636e+81
2.67269e+80
-9.27306e+80
-3.06559e+80
-4.3326e+80
-9.93427e+80
-1.2282e+81
-6.99256e+80
-4.0361e+80
-6.26302e+80
-7.09194e+80
-6.0908e+80
-3.08355e+80
-6.34805e+80
-4.33127e+81
-1.50109e+81
-4.10113e+81
-1.64668e+81
5.01988e+81
-3.80907e+81
6.97347e+81
2.41725e+82
5.97173e+82
1.25795e+83
2.72769e+83
1.94191e+83
2.95932e+82
2.51843e+83
1.41845e+83
1.97449e+82
-8.81503e+82
-2.09581e+83
-4.38198e+83
-4.99829e+83
-2.20656e+83
1.31762e+83
1.11418e+84
3.37346e+83
-7.81403e+83
-1.61017e+84
6.03656e+83
-8.97571e+84
-4.44049e+85
-1.12073e+86
-2.20527e+86
-4.52304e+86
-7.55602e+86
-1.33222e+87
-2.36686e+87
-4.23505e+87
-7.57761e+87
-1.34666e+88
-2.36341e+88
-4.07112e+88
-6.84893e+88
-1.12337e+89
-1.7983e+89
-2.81412e+89
-4.30847e+89
-6.41987e+89
-9.25226e+89
-1.28958e+90
-1.69674e+90
-2.03146e+90
-2.00538e+90
-9.80924e+89
2.32943e+90
1.03814e+91
2.76633e+91
6.20817e+91
1.27128e+92
2.45161e+92
4.5224e+92
8.04998e+92
1.39013e+93
2.33695e+93
3.83348e+93
6.14595e+93
9.64122e+93
1.48109e+94
2.22946e+94
3.29008e+94
4.76194e+94
6.76244e+94
9.42521e+94
1.28945e+95
1.73165e+95
2.28308e+95
2.95551e+95
3.75855e+95
4.6927e+95
5.7514e+95
6.92435e+95
8.18739e+95
9.50757e+95
1.08426e+96
1.21418e+96
1.33469e+96
1.43913e+96
1.51933e+96
1.56354e+96
1.55008e+96
1.43026e+96
1.08419e+96
2.23057e+95
-1.74202e+96
-5.56846e+96
-1.14324e+97
-1.9322e+97
-2.99624e+97
-4.6039e+97
-6.87547e+97
-1.06115e+98
-1.76692e+98
-2.69625e+98
-3.8461e+98
-5.22701e+98
-6.63634e+98
-7.4501e+98
-6.19837e+98
2.26421e+97
1.79503e+99
5.85255e+99
1.42893e+100
3.0785e+100
6.16273e+100
1.17291e+101
2.14812e+101
3.81278e+101
6.58809e+101
1.11148e+102
1.83469e+102
2.96731e+102
4.70716e+102
7.3296e+102
1.1209e+103
1.68423e+103
2.48721e+103
3.61082e+103
5.15425e+103
7.23552e+103
9.99087e+103
1.35731e+104
1.81489e+104
2.38981e+104
3.10155e+104
3.97242e+104
5.03069e+104
6.31739e+104
7.89943e+104
9.89427e+104
1.2515e+105
1.61512e+105
2.15095e+105
2.98451e+105
4.33311e+105
6.56323e+105
1.02787e+106
1.64556e+106
2.66462e+106
4.32829e+106
7.01261e+106
1.12912e+107
1.80277e+107
2.85062e+107
4.46115e+107
6.9075e+107
1.05805e+108
1.60322e+108
2.40321e+108
3.56389e+108
5.22899e+108
7.59093e+108
1.09037e+109
1.5498e+109
2.17975e+109
3.03376e+109
4.17831e+109
5.69465e+109
7.68034e+109
1.02503e+110
1.35372e+110
1.76908e+110
2.28761e+110
2.92696e+110
3.70544e+110
4.6412e+110
5.75131e+110
7.0506e+110
8.55029e+110
1.02565e+111
1.21686e+111
1.42779e+111
1.65655e+111
1.90015e+111
2.15424e+111
2.41299e+111
2.66869e+111
2.91125e+111
3.12725e+111
3.29844e+111
3.40001e+111
3.39966e+111
3.26141e+111
2.96105e+111
2.51922e+111
2.03849e+111
1.69239e+111
1.20754e+111
-9.79702e+110
-2.91612e+111
-5.97196e+111
-9.88875e+111
-1.48127e+112
-2.08372e+112
-2.81091e+112
-3.67565e+112
-4.68678e+112
-5.84782e+112
-7.15617e+112
-8.60231e+112
-1.01692e+113
-1.18318e+113
-1.35574e+113
-1.53061e+113
-1.70318e+113
-1.86842e+113
-2.02111e+113
-2.15605e+113
-2.26841e+113
-2.3539e+113
-2.40912e+113
-2.4317e+113
-2.42046e+113
-2.37553e+113
-2.29834e+113
-2.19153e+113
-2.05885e+113
-1.90493e+113
-1.73504e+113
-1.55481e+113
-1.36993e+113
-1.18588e+113
-1.00768e+113
-8.3964e+112
-6.85267e+112
-5.471e+112
-4.26688e+112
-3.24592e+112
-2.40454e+112
-1.73137e+112
-1.20912e+112
-8.16799e+111
-5.31985e+111
-3.32211e+111
-1.9515e+111
-1.00003e+111
-3.41872e+110
2.97944e+109
2.70639e+109
9.40358e+108
4.13095e+108
-4.90582e+108
-1.09045e+109
1.41193e+108
1.63025e+107
2.05979e+107
2.9296e+107
5.1927e+107
9.76003e+107
-1.03342e+108
-2.49081e+106
3.54876e+106
1.95992e+105
-5.14577e+106
-8.44005e+106
-3.12598e+106
1.21766e+106
9.29048e+106
3.05785e+106
-1.21029e+106
1.96727e+105
-5.95894e+105
-6.51321e+105
2.85109e+104
1.34443e+106
1.48112e+106
-1.73187e+105
-3.93645e+105
9.23146e+105
2.54979e+106
2.87176e+106
3.2281e+106
3.75031e+106
4.59161e+106
6.07259e+106
-1.47681e+27
7.93465e+26
-2.91868e+26
-5.99219e+25
2.91773e+26
1.39445e+27
2.12639e+27
4.09586e+27
7.42489e+27
1.24053e+28
2.20574e+28
4.02008e+28
6.75736e+28
9.95831e+28
1.5166e+29
2.38546e+29
3.98482e+29
6.73309e+29
1.12337e+30
1.96677e+30
3.74262e+30
7.46978e+30
1.70788e+31
3.52371e+31
4.65114e+31
4.64722e+31
1.97569e+31
4.28791e+31
7.36628e+31
1.26384e+32
2.14539e+32
3.63992e+32
6.18372e+32
1.01397e+33
1.65343e+33
2.72032e+33
4.58729e+33
7.75211e+33
1.29735e+34
2.15048e+34
3.58004e+34
5.98992e+34
1.00909e+35
1.71039e+35
2.93476e+35
5.11903e+35
9.0904e+35
1.62887e+36
2.89131e+36
4.95144e+36
8.08552e+36
1.30447e+37
2.10505e+37
3.40594e+37
5.53015e+37
9.06386e+37
1.51339e+38
2.56925e+38
4.3843e+38
7.42886e+38
1.21958e+39
1.85613e+39
2.42811e+39
2.42577e+39
1.54685e+39
9.19087e+38
9.57412e+38
2.69867e+39
5.66234e+39
1.15956e+40
2.67127e+40
3.83985e+40
3.97854e+40
7.45423e+40
2.4429e+41
7.19636e+41
1.99846e+42
6.08027e+42
1.25372e+43
2.34861e+43
4.1705e+43
6.91467e+43
9.98864e+43
1.01884e+44
-1.60551e+43
-4.4504e+44
-1.14145e+45
-3.49241e+42
-1.27595e+43
-8.74758e+42
-1.33571e+43
-2.88047e+43
1.03268e+42
7.72049e+41
8.75389e+41
4.96949e+41
-4.72064e+41
-1.68222e+42
-5.49043e+42
-1.4657e+43
-2.92637e+43
-5.06643e+43
-1.7107e+43
-1.18008e+43
2.09245e+43
5.71607e+43
1.17458e+44
2.71167e+44
8.47229e+44
2.79185e+45
3.26631e+45
8.62573e+45
1.76755e+46
3.27368e+46
5.49913e+46
7.60867e+46
3.42576e+46
-3.07125e+46
1.14306e+46
7.42631e+46
2.25409e+47
5.93492e+47
2.79955e+46
2.62524e+46
7.9485e+46
1.46324e+47
2.42758e+47
7.31409e+47
2.2761e+48
1.2652e+48
-6.70294e+48
1.61983e+48
7.45102e+49
1.586e+49
5.04383e+48
-5.43195e+48
2.14178e+49
-1.5318e+50
-4.45509e+49
-1.0239e+51
8.77088e+49
-1.39432e+50
-1.29443e+50
-1.74971e+50
-2.07788e+50
-2.38451e+50
-3.09371e+50
-5.16815e+50
-1.05582e+51
-2.0079e+51
-3.01559e+51
-4.37285e+51
-4.89349e+51
-4.67318e+51
-1.95162e+51
8.43284e+51
3.84204e+52
1.42194e+53
4.17604e+53
8.39899e+53
1.70922e+54
3.34735e+54
5.81735e+54
8.58415e+54
1.01619e+55
1.24411e+55
1.27376e+55
-1.59832e+54
-2.6434e+55
-4.38165e+55
-6.66824e+55
-1.17091e+56
2.74397e+53
-2.2619e+56
-4.07354e+56
-2.00124e+57
-6.88493e+57
-2.0707e+58
-6.86488e+58
-1.33135e+59
-2.47454e+59
-4.38244e+59
-7.45002e+59
-1.21905e+60
-1.79092e+60
-1.99265e+60
-1.3541e+60
-8.08183e+59
-2.42427e+60
-2.74197e+60
1.16288e+61
2.9964e+61
9.01476e+60
3.71016e+61
8.94274e+61
1.69201e+62
2.6959e+62
3.92768e+62
5.46703e+62
7.77709e+62
1.21087e+63
2.03057e+63
3.389e+63
5.38527e+63
8.20809e+63
1.21795e+64
1.86301e+64
3.0289e+64
5.42011e+64
1.08211e+65
2.3817e+65
5.60852e+65
1.37424e+66
3.3086e+66
7.85284e+66
1.77926e+67
4.42023e+67
1.05092e+68
1.40525e+68
2.90318e+68
5.63832e+68
1.00688e+69
1.37688e+69
3.62469e+67
6.8762e+67
4.67742e+67
2.97421e+68
7.77757e+68
1.9744e+69
6.28334e+69
1.57685e+70
2.95723e+70
4.83917e+70
5.75761e+70
2.99842e+70
1.90093e+70
4.97614e+70
8.01978e+71
1.05982e+72
1.71469e+72
3.84424e+71
-5.7449e+70
2.25635e+71
4.79561e+71
3.25742e+71
6.98559e+70
1.52364e+71
4.01973e+71
6.17388e+71
1.09858e+72
7.32194e+71
-7.1443e+72
4.24735e+72
8.99961e+72
1.4661e+73
3.02257e+73
5.39842e+73
8.68698e+73
1.31595e+74
1.9089e+74
2.69115e+74
3.68545e+74
6.29505e+74
9.86454e+74
1.32615e+75
1.74628e+75
2.41352e+75
3.38818e+75
4.76239e+75
6.90174e+75
1.09272e+76
2.02275e+76
4.73789e+76
1.2008e+77
3.20362e+77
9.49684e+77
-8.24165e+76
-7.38417e+76
-3.37869e+75
2.09231e+77
7.41304e+77
1.75361e+78
2.58416e+78
3.13152e+78
5.782e+78
1.46329e+79
-7.5361e+78
-9.09596e+78
-1.4301e+79
-2.00593e+79
-2.59662e+79
-3.43956e+79
-4.83659e+79
-7.07984e+79
-1.06089e+80
-1.65072e+80
-2.48481e+80
-3.04198e+80
1.12047e+80
1.92692e+81
2.60032e+81
4.61821e+81
2.07908e+82
3.10387e+82
3.47325e+82
-4.43901e+81
7.88716e+80
-6.2701e+80
-2.04787e+80
-6.16831e+80
-8.19183e+80
-8.04789e+80
-7.1752e+80
-1.51764e+80
1.43912e+80
4.66023e+80
8.88911e+80
1.17905e+81
5.94549e+80
6.3387e+80
2.82391e+80
2.77402e+80
9.21292e+80
2.55796e+81
6.00719e+81
1.18343e+82
1.3764e+82
-8.66154e+81
-6.31081e+82
-7.96568e+82
-7.16186e+82
5.05534e+83
4.10112e+83
1.81026e+83
4.26462e+82
-1.95711e+82
4.52581e+82
-4.33121e+81
-4.05411e+82
9.47899e+82
1.6586e+83
-1.21311e+84
-3.64718e+84
-1.16412e+85
-1.0574e+85
1.34285e+85
1.60106e+85
3.48462e+84
-9.33622e+85
-9.81951e+85
-1.68126e+86
-2.63611e+86
-3.78265e+86
-5.36293e+86
-7.74127e+86
-1.13097e+87
-1.53529e+87
-1.63885e+87
-6.1684e+86
3.06674e+87
1.17016e+88
1.37053e+88
1.34031e+87
1.23137e+88
3.21179e+88
8.21159e+88
1.89526e+89
4.0775e+89
8.35533e+89
1.64983e+90
3.16258e+90
5.90212e+90
1.07566e+91
1.91788e+91
3.34967e+91
5.73642e+91
9.63951e+91
1.59035e+92
2.57716e+92
4.1033e+92
6.4198e+92
9.86833e+92
1.48965e+93
2.20622e+93
3.20212e+93
4.55064e+93
6.33459e+93
8.65833e+93
1.16606e+94
1.54798e+94
2.01604e+94
2.57726e+94
3.23818e+94
4.11044e+94
5.05071e+94
6.0813e+94
7.03891e+94
8.14583e+94
9.25734e+94
1.03298e+95
1.13209e+95
1.21901e+95
1.29008e+95
1.34149e+95
1.36942e+95
1.37075e+95
1.34074e+95
1.26717e+95
1.11756e+95
8.26167e+94
3.66585e+94
-9.71551e+93
1.27618e+95
5.26832e+95
1.53279e+96
-4.76819e+95
-1.84926e+95
4.38932e+96
8.91144e+96
2.15084e+97
5.04571e+97
1.11506e+98
2.27801e+98
4.49093e+98
8.62503e+98
1.61824e+99
2.97032e+99
5.34334e+99
9.43307e+99
1.63584e+100
2.78855e+100
4.67512e+100
7.71163e+100
1.25187e+101
2.0004e+101
3.14686e+101
4.87397e+101
7.43287e+101
1.11612e+102
1.65029e+102
2.40274e+102
3.44484e+102
4.86378e+102
6.76361e+102
9.26569e+102
1.25094e+103
1.66538e+103
2.18838e+103
2.8424e+103
3.65706e+103
4.67528e+103
5.96465e+103
7.63751e+103
9.88515e+103
1.3035e+104
1.76447e+104
2.46548e+104
3.56337e+104
5.31622e+104
8.14284e+104
1.27133e+105
2.00846e+105
3.19027e+105
5.06985e+105
8.03175e+105
1.26534e+106
1.97919e+106
3.07045e+106
4.72143e+106
7.19334e+106
1.08559e+107
1.62262e+107
2.40184e+107
3.52061e+107
5.10999e+107
7.34404e+107
1.04508e+108
1.47248e+108
2.0541e+108
2.83694e+108
3.87904e+108
5.2508e+108
7.03619e+108
9.33349e+108
1.22554e+109
1.59281e+109
2.04898e+109
2.60869e+109
3.287e+109
4.09865e+109
5.0573e+109
6.17454e+109
7.4587e+109
8.91368e+109
1.05376e+110
1.23213e+110
1.42475e+110
1.62888e+110
1.84067e+110
2.05495e+110
2.26499e+110
2.46201e+110
2.63451e+110
2.76718e+110
2.83973e+110
2.82645e+110
2.699e+110
2.43675e+110
2.046e+110
1.573e+110
1.0606e+110
3.9362e+109
-8.73284e+109
-2.99634e+110
-5.76371e+110
-9.39883e+110
-1.37017e+111
-1.89417e+111
-2.5224e+111
-3.26649e+111
-4.13265e+111
-5.12256e+111
-6.23293e+111
-7.45484e+111
-8.77323e+111
-1.01666e+112
-1.16071e+112
-1.30612e+112
-1.44906e+112
-1.58537e+112
-1.71076e+112
-1.82101e+112
-1.9122e+112
-1.98088e+112
-2.02436e+112
-2.04078e+112
-2.02929e+112
-1.99007e+112
-1.92439e+112
-1.83447e+112
-1.72343e+112
-1.59511e+112
-1.45382e+112
-1.30419e+112
-1.15085e+112
-9.98264e+111
-8.50506e+111
-7.11089e+111
-5.82845e+111
-4.67836e+111
-3.67322e+111
-2.81769e+111
-2.10911e+111
-1.53864e+111
-1.09278e+111
-7.55277e+110
-5.08836e+110
-3.35354e+110
-2.12842e+110
-1.1887e+110
-5.24098e+109
-3.76299e+109
-5.60466e+109
4.87758e+108
-3.25996e+108
3.62078e+108
8.60753e+108
2.38517e+109
1.92513e+107
3.64198e+107
2.95333e+107
2.63457e+107
5.86554e+106
1.02044e+107
2.31325e+106
-1.7304e+107
5.3678e+106
5.59077e+105
-2.27268e+105
9.29142e+105
-4.861e+104
8.62941e+104
-1.33852e+105
-5.2198e+104
2.22988e+104
-6.81557e+104
-1.65111e+105
-2.80039e+105
-7.33222e+105
2.92418e+104
-1.4986e+104
9.92104e+104
1.94162e+105
2.12265e+105
2.44877e+105
2.23835e+105
2.7153e+105
2.71709e+105
2.19996e+105
7.33571e+104
-4.56365e+26
9.48797e+25
1.03656e+26
3.47602e+26
9.59021e+26
1.52161e+27
2.81224e+27
5.01864e+27
9.01036e+27
1.55046e+28
2.6064e+28
4.61974e+28
7.74962e+28
1.24169e+29
1.81073e+29
2.43803e+29
3.32709e+29
4.44799e+29
4.69871e+29
2.7896e+29
4.37968e+29
5.85228e+29
-3.07293e+29
3.45934e+29
7.51208e+29
7.88922e+30
8.61743e+30
6.75512e+30
7.42245e+30
2.16316e+30
-2.00937e+31
-8.63037e+31
-2.73185e+32
-7.43265e+32
-1.88e+33
-4.49395e+33
-1.05679e+34
-2.53055e+34
-7.9564e+34
-2.0786e+35
-3.88418e+35
-7.34216e+35
-1.36712e+36
-2.50236e+36
-4.47795e+36
-7.75339e+36
-1.27571e+37
-1.68025e+37
-1.38392e+37
-1.12421e+37
-2.31028e+37
-4.55516e+37
-8.34344e+37
-1.48374e+38
-2.58795e+38
-4.44723e+38
-7.44448e+38
-1.20767e+39
-1.89057e+39
-2.82962e+39
-3.94835e+39
-4.74971e+39
-4.14945e+39
-2.67363e+39
-4.56277e+39
-1.34276e+40
-2.50793e+40
-3.63659e+40
-5.35048e+40
-7.71298e+40
-1.06976e+41
-1.47852e+41
-2.18279e+41
-4.15601e+41
-1.10444e+42
-4.70412e+42
-1.92403e+41
7.24179e+41
7.775e+42
1.65649e+43
3.56187e+43
5.83702e+43
8.09712e+43
8.70451e+43
6.44561e+43
4.71515e+43
1.14963e+43
1.45353e+44
2.05087e+43
4.92425e+43
-8.57803e+41
3.64235e+42
2.14073e+42
1.47797e+41
5.19051e+41
1.09374e+42
1.4045e+42
1.2914e+42
2.03602e+42
4.76146e+42
9.96994e+42
5.01023e+42
-9.39014e+42
-2.04004e+42
1.87495e+42
-2.00753e+43
-8.96232e+43
-2.6921e+44
-1.0026e+45
-1.00978e+45
1.6599e+44
-2.12045e+45
2.6752e+45
5.29449e+45
-2.08794e+45
-1.76038e+46
-4.03861e+46
-3.08092e+46
7.53642e+45
1.21432e+47
3.97508e+47
1.04629e+48
-1.68446e+47
-2.8575e+47
-2.73079e+47
-2.4028e+47
4.28604e+46
-1.05094e+46
-3.1063e+47
-1.38719e+46
2.45137e+48
6.34399e+48
8.83603e+48
7.24048e+48
6.09168e+48
4.96218e+48
2.72527e+49
8.34527e+49
2.2136e+50
-3.05069e+48
1.91434e+49
5.53638e+48
-1.43916e+48
-1.52873e+49
1.61542e+48
4.89872e+49
3.07617e+49
-4.21993e+49
-3.46478e+49
3.39271e+49
1.95653e+48
5.56603e+49
1.5749e+50
4.27211e+50
1.18458e+51
5.96139e+51
3.11236e+52
3.93378e+53
8.97913e+53
1.7577e+54
3.30775e+54
6.12388e+54
1.09065e+55
1.91271e+55
3.26998e+55
5.19293e+55
7.65101e+55
1.03496e+56
1.31584e+56
1.44151e+56
1.43652e+56
1.51251e+56
1.05292e+56
8.46436e+56
1.82236e+57
2.12275e+57
1.81005e+57
-2.23335e+56
-4.27188e+57
-3.03206e+58
-5.64226e+58
-1.05002e+59
-1.99351e+59
-3.7295e+59
-7.05912e+59
-1.28944e+60
-2.20125e+60
-3.38217e+60
-4.66904e+60
-4.98564e+60
4.25328e+59
5.36674e+60
7.96119e+60
2.98595e+61
7.55172e+61
1.5104e+62
2.59992e+62
4.248e+62
6.83626e+62
1.09613e+63
1.76331e+63
2.83383e+63
4.48371e+63
6.88378e+63
1.0139e+64
1.42742e+64
1.92313e+64
2.47155e+64
3.05956e+64
3.80062e+64
5.22048e+64
8.83894e+64
1.92279e+65
4.93957e+65
1.33702e+66
3.6662e+66
9.9597e+66
1.71422e+67
4.68317e+67
1.34428e+68
2.39278e+68
4.10299e+68
9.15938e+68
2.40363e+69
6.86657e+69
-8.60632e+68
-2.38794e+69
-3.0146e+69
1.35947e+69
3.18839e+69
9.34277e+69
3.38722e+70
9.19242e+70
1.59834e+71
1.91782e+71
3.19704e+71
1.23907e+72
7.24523e+71
9.43071e+71
2.70979e+72
3.07156e+71
-9.29783e+71
-2.32514e+72
2.33767e+71
3.14782e+71
1.44116e+71
2.26487e+71
4.72915e+71
6.68002e+71
1.18516e+72
2.14349e+72
3.7455e+72
6.76593e+72
1.21315e+73
1.98477e+73
3.55887e+73
5.87601e+73
9.33205e+73
1.44614e+74
2.21116e+74
3.3371e+74
5.00325e+74
7.97928e+74
1.23584e+75
1.78444e+75
2.47339e+75
3.29083e+75
4.09857e+75
4.53755e+75
3.88991e+75
1.12431e+75
-4.72637e+75
-8.91254e+75
-1.39747e+76
-7.18143e+76
-9.38846e+77
-1.53538e+78
-1.95276e+78
-1.14253e+78
-4.48921e+77
-1.57379e+78
-2.39353e+78
-3.67353e+78
-5.37734e+78
-7.2684e+78
-9.24372e+78
-1.37886e+79
-1.81863e+79
-2.00073e+79
-1.99601e+79
-1.87368e+79
-1.90288e+79
-2.31164e+79
-3.47433e+79
-6.10694e+79
-1.22501e+80
-5.6824e+79
-1.22181e+80
-2.81071e+80
-5.25245e+80
1.94374e+80
1.28309e+79
-3.1846e+81
-1.30695e+81
4.55856e+80
4.31672e+79
-9.51178e+79
-2.51578e+81
-2.282e+81
-2.7408e+81
-1.86626e+81
-5.01634e+80
-5.65212e+80
-6.21475e+79
5.51431e+80
7.82739e+80
9.78591e+80
9.27212e+80
5.24763e+80
9.2491e+80
2.29761e+81
4.29521e+81
9.06441e+81
1.52602e+82
3.15946e+82
6.62697e+82
1.09314e+83
1.71131e+83
2.72018e+83
4.09085e+83
5.90429e+83
7.12616e+83
6.94752e+83
4.95717e+83
1.79064e+83
-8.35035e+82
-6.17979e+82
6.24346e+82
3.83384e+82
4.04222e+83
1.82539e+83
-8.8259e+83
-1.39963e+84
5.44137e+83
-1.15028e+84
-4.37706e+84
-1.37763e+85
-1.21401e+86
-2.08369e+86
-2.15614e+86
-1.17901e+86
-2.80004e+86
-5.1283e+86
-9.07208e+86
-1.53481e+87
-2.61057e+87
-4.4329e+87
-7.35494e+87
-1.16977e+88
-1.75903e+88
-2.43756e+88
-2.946e+88
-2.788e+88
-1.02853e+88
3.47778e+88
9.62847e+88
-3.90133e+88
-4.18812e+88
-2.25469e+89
-5.66216e+89
-1.14424e+90
-2.1133e+90
-3.74471e+90
-6.45104e+90
-1.08541e+91
-1.78689e+91
-2.87951e+91
-4.53903e+91
-6.98609e+91
-1.04667e+92
-1.52041e+92
-2.13322e+92
-2.89052e+92
-3.82569e+92
-5.11976e+92
-7.3274e+92
-1.15373e+93
-1.8895e+93
-2.91666e+93
-4.06444e+93
-5.64593e+93
-7.78018e+93
-1.01037e+94
-7.84386e+93
-9.99491e+93
-4.19135e+93
-1.78529e+94
-2.15052e+94
-2.47505e+94
-2.80335e+94
-3.13686e+94
-3.45757e+94
-3.72973e+94
-3.97741e+94
-4.38467e+94
-5.3914e+94
-8.14614e+94
-1.54885e+95
-3.65025e+95
-1.02721e+96
-5.93044e+96
-9.23666e+96
-1.57816e+97
-2.99808e+97
-5.10348e+97
-5.65762e+97
-3.84621e+97
-3.57639e+97
2.35423e+97
1.5469e+97
-4.27837e+96
-4.14502e+97
-8.23713e+97
-1.60808e+98
-3.20706e+98
-5.94089e+98
-1.06647e+99
-1.86781e+99
-3.20325e+99
-5.39128e+99
-8.91856e+99
-1.45171e+100
-2.32708e+100
-3.67591e+100
-5.72477e+100
-8.79348e+100
-1.33263e+101
-1.99303e+101
-2.94215e+101
-4.28784e+101
-6.17037e+101
-8.7692e+101
-1.23106e+102
-1.70764e+102
-2.34146e+102
-3.1754e+102
-4.26276e+102
-5.6712e+102
-7.48961e+102
-9.84039e+102
-1.29007e+103
-1.69394e+103
-2.23785e+103
-2.98975e+103
-4.06049e+103
-5.63218e+103
-8.00403e+103
-1.16653e+104
-1.74075e+104
-2.64929e+104
-4.09037e+104
-6.37062e+104
-9.95848e+104
-1.55614e+105
-2.42364e+105
-3.75468e+105
-5.778e+105
-8.82494e+105
-1.33703e+106
-2.00875e+106
-2.99211e+106
-4.4182e+106
-6.46694e+106
-9.38245e+106
-1.34922e+107
-1.92304e+107
-2.71655e+107
-3.80327e+107
-5.27705e+107
-7.25606e+107
-9.88702e+107
-1.33494e+108
-1.78595e+108
-2.36731e+108
-3.1088e+108
-4.04438e+108
-5.21193e+108
-6.65269e+108
-8.41029e+108
-1.05293e+109
-1.30533e+109
-1.60225e+109
-1.94703e+109
-2.34205e+109
-2.78824e+109
-3.28473e+109
-3.82831e+109
-4.41299e+109
-5.02943e+109
-5.66444e+109
-6.30032e+109
-6.91428e+109
-7.47746e+109
-7.95313e+109
-8.29161e+109
-8.41577e+109
-8.1835e+109
-7.30488e+109
-5.18876e+109
-7.16235e+108
7.86164e+109
2.18943e+110
3.29302e+110
2.65804e+110
9.13012e+109
2.13084e+110
3.16462e+110
4.49641e+110
6.12382e+110
8.06786e+110
1.03571e+111
1.30129e+111
1.60429e+111
1.94386e+111
2.31738e+111
2.72034e+111
3.14631e+111
3.58692e+111
4.03204e+111
4.47005e+111
4.88826e+111