/*--------------------------------*- C++ -*----------------------------------*\
  =========                 |
  \\      /  F ield         | OpenFOAM: The Open Source CFD Toolbox
   \\    /   O peration     | Website:  https://openfoam.org
    \\  /    A nd           | Version:  9
     \\/     M anipulation  |
\*---------------------------------------------------------------------------*/
FoamFile
{
    format      ascii;
    class       volScalarField;
    location    "1";
    object      f_6;
}
// * * * * * * * * * * * * * * * * * * * * * * * * * * * * * * * * * * * * * //

dimensions      [1 -3 0 0 0 0 0];

internalField   nonuniform List<scalar> 
120000
(
-6.26137e+25
-1.27013e+26
-2.69291e+26
-3.42828e+26
-5.13253e+26
-3.4301e+26
3.39312e+26
2.38638e+26
3.70128e+26
4.8561e+26
8.57089e+26
1.41946e+27
2.04974e+27
4.7026e+27
7.54587e+27
1.18913e+28
1.84465e+28
2.83375e+28
4.47786e+28
7.84163e+28
1.5048e+29
2.95184e+29
5.44747e+29
1.04757e+30
1.94527e+30
3.11255e+30
4.97455e+30
8.3688e+30
1.42297e+31
2.26072e+31
3.36604e+31
5.17798e+31
8.79293e+31
1.50902e+32
2.45942e+32
3.88739e+32
6.21629e+32
1.03648e+33
1.77772e+33
3.05607e+33
5.19554e+33
8.74305e+33
1.46249e+34
2.43313e+34
4.03199e+34
6.65495e+34
1.09143e+35
1.77389e+35
2.85503e+35
4.54752e+35
7.13288e+35
1.10331e+36
1.6892e+36
2.57208e+36
3.89127e+36
5.86105e+36
8.81023e+36
1.3198e+37
1.96736e+37
2.91218e+37
4.33018e+37
6.80874e+37
1.2971e+38
3.48371e+38
1.18985e+39
-1.94205e+39
-4.32258e+39
3.07551e+39
-3.86479e+39
-6.22347e+39
-3.53931e+37
3.52404e+40
6.03435e+40
-3.54574e+39
1.93643e+40
-5.24676e+40
-3.11046e+41
-2.47298e+42
-3.90349e+42
-9.89712e+42
-3.33891e+43
-9.77446e+43
-2.55322e+44
-5.15285e+44
-3.77013e+44
2.91223e+45
1.98966e+45
1.07991e+45
2.67503e+43
3.77653e+43
6.8265e+43
-2.98804e+42
7.91393e+42
-1.69446e+42
5.7566e+41
7.11526e+42
-6.71728e+42
-4.1877e+42
5.50847e+41
5.69413e+42
2.05177e+43
8.6163e+43
2.05395e+44
8.17864e+44
3.23589e+44
1.05206e+44
-2.84511e+43
5.1182e+43
8.46835e+43
1.24999e+44
2.00233e+44
3.67907e+44
6.27472e+44
1.08831e+45
1.92011e+45
3.47709e+45
6.64731e+45
1.10972e+46
3.66646e+46
1.06746e+47
3.6146e+47
1.21814e+48
-1.28477e+46
4.26899e+46
1.71948e+46
-3.14293e+46
-8.76271e+47
-2.8637e+48
-5.96966e+47
-1.50883e+46
-2.08142e+48
-1.79085e+48
-2.66433e+48
-3.79514e+48
-2.63795e+48
1.88521e+49
1.41989e+50
5.47047e+50
1.87522e+51
1.43133e+50
7.79316e+50
2.11326e+51
2.67357e+51
3.26852e+51
3.58869e+51
3.36655e+51
2.40007e+51
6.94439e+50
-1.19686e+51
-1.94324e+51
-1.52628e+51
-1.81574e+51
-3.33431e+51
6.73454e+48
2.66639e+51
1.47977e+52
1.95355e+52
2.50412e+52
7.03939e+52
1.37162e+53
2.42519e+53
4.22548e+53
7.07989e+53
1.14145e+54
1.49124e+54
6.41066e+54
1.48189e+55
3.17037e+55
6.93988e+55
1.69148e+56
4.34876e+56
1.01591e+57
1.76334e+57
2.78604e+57
4.30234e+57
6.58504e+57
9.8806e+57
1.44851e+58
2.05478e+58
2.83308e+58
3.78249e+58
4.8867e+58
6.31769e+58
9.14279e+58
1.62567e+59
3.17208e+59
5.84721e+59
9.79284e+59
1.6907e+60
4.08868e+60
1.12408e+61
2.10036e+61
3.51028e+60
5.25686e+60
-4.00785e+60
-4.23889e+60
-3.22725e+60
-1.80607e+61
-2.81229e+61
-4.09838e+61
-5.95568e+61
-1.11252e+62
-2.96237e+62
-8.79457e+62
-2.60397e+63
-7.46117e+62
-1.4728e+61
2.42513e+63
9.82928e+63
3.0544e+64
8.58217e+64
2.27615e+65
5.67726e+65
1.2824e+66
2.47544e+66
4.13381e+66
-1.20087e+66
-6.87244e+65
-1.8942e+66
-3.38753e+66
-5.02624e+66
-5.80702e+66
-2.78225e+67
6.67676e+66
2.39126e+67
4.58325e+67
6.9716e+67
1.49764e+68
2.91929e+68
5.41283e+68
7.77431e+68
5.6981e+67
-1.46037e+69
-7.2468e+69
-2.81759e+70
-1.19963e+71
-5.47102e+71
-1.61659e+72
-4.52274e+72
3.347e+71
-9.39919e+71
-1.03494e+72
-9.83351e+71
-2.00172e+72
-2.5499e+72
-7.89461e+72
-3.17795e+71
-1.9297e+72
-4.30159e+72
-7.0057e+72
-8.30176e+72
-4.55626e+72
1.23021e+72
-2.35897e+70
-1.89838e+72
-8.62719e+72
-1.40512e+73
-1.95006e+73
-1.79177e+73
-1.16093e+72
1.21261e+73
1.19586e+72
9.77837e+72
-6.70583e+74
-7.90869e+74
-1.04651e+74
1.13708e+74
3.30277e+74
6.55658e+74
1.26976e+75
2.55598e+75
5.36059e+75
1.15383e+76
2.45553e+76
5.08544e+76
1.0168e+77
1.88598e+77
3.02613e+77
4.84948e+77
9.83791e+77
6.87617e+77
-3.8297e+77
-8.04947e+77
-4.27464e+77
-4.61841e+77
-3.04781e+77
1.02879e+77
-6.29605e+77
-2.47673e+77
6.17558e+77
1.41222e+78
3.97936e+78
9.75364e+78
1.61513e+79
1.19272e+79
-2.4741e+79
-9.00758e+79
-2.22015e+80
-6.40026e+80
-4.55116e+80
-1.56438e+80
-3.93779e+81
-3.76197e+81
-2.16656e+81
-3.83133e+80
1.48901e+81
1.58464e+81
-7.16186e+80
5.08441e+80
1.07459e+81
1.57833e+81
1.31718e+81
1.05355e+81
1.83229e+81
8.49958e+80
-6.14186e+80
1.32317e+80
6.73641e+81
1.66634e+82
2.53768e+82
3.63886e+82
2.82661e+82
1.29414e+82
-1.51921e+82
-2.27998e+82
-5.24283e+81
7.05382e+81
2.92658e+82
-1.6768e+82
-1.13912e+82
-9.65071e+81
-4.16994e+82
-3.28982e+82
6.17579e+81
3.87744e+82
1.20772e+83
1.8582e+83
2.19023e+83
2.87987e+83
3.4894e+83
2.61442e+83
-2.8463e+83
-2.65745e+84
-7.51771e+84
-1.54698e+85
-2.15571e+85
2.45494e+84
4.17867e+84
1.76313e+84
3.12459e+85
2.7156e+85
3.20342e+85
4.64886e+85
5.61531e+85
2.19584e+85
-2.20419e+86
-1.27022e+87
-4.88846e+87
-1.54972e+88
-4.27491e+88
-1.06679e+89
-2.48239e+89
-5.48951e+89
-1.16753e+90
-2.40478e+90
-4.82298e+90
-9.4405e+90
-1.80848e+91
-3.39554e+91
-6.25575e+91
-1.1319e+92
-2.01262e+92
-3.51837e+92
-6.04912e+92
-1.02309e+93
-1.70243e+93
-2.78741e+93
-4.4908e+93
-7.1193e+93
-1.11053e+94
-1.70446e+94
-2.5738e+94
-3.82354e+94
-5.58759e+94
-8.03185e+94
-1.13553e+95
-1.5788e+95
-2.15858e+95
-2.90189e+95
-3.8357e+95
-4.9858e+95
-6.37241e+95
-7.99945e+95
-9.87705e+95
-1.19855e+96
-1.43097e+96
-1.67399e+96
-1.92835e+96
-2.18238e+96
-2.42632e+96
-2.64908e+96
-2.83884e+96
-2.98338e+96
-3.07027e+96
-3.08677e+96
-3.0201e+96
-2.85852e+96
-2.59494e+96
-2.24331e+96
-1.87418e+96
-1.71297e+96
-2.33579e+96
-5.01649e+96
-1.24263e+97
-3.01289e+97
-6.94319e+97
-1.54194e+98
-3.26031e+98
-6.67185e+98
-1.33541e+99
-2.61362e+99
-5.01265e+99
-9.43442e+99
-1.74472e+100
-3.17323e+100
-5.68014e+100
-1.00123e+101
-1.73861e+101
-2.97506e+101
-5.01781e+101
-8.34294e+101
-1.36759e+102
-2.21027e+102
-3.52206e+102
-5.53358e+102
-8.57155e+102
-1.30899e+103
-1.97067e+103
-2.9246e+103
-4.2783e+103
-6.16901e+103
-8.76801e+103
-1.22844e+104
-1.69681e+104
-2.31135e+104
-3.10639e+104
-4.12227e+104
-5.40786e+104
-7.02582e+104
-9.06325e+104
-1.16515e+105
-1.50019e+105
-1.94668e+105
-2.56433e+105
-3.45418e+105
-4.78592e+105
-6.84106e+105
-1.00806e+106
-1.52493e+106
-2.35351e+106
-3.68092e+106
-5.79831e+106
-9.15358e+106
-1.44279e+107
-2.26459e+107
-3.53314e+107
-5.47261e+107
-8.40909e+107
-1.28116e+108
-1.93469e+108
-2.89523e+108
-4.29293e+108
-6.30637e+108
-9.17754e+108
-1.32302e+109
-1.88921e+109
-2.67202e+109
-3.74307e+109
-5.19303e+109
-7.13508e+109
-9.7082e+109
-1.30803e+110
-1.74508e+110
-2.30518e+110
-3.01483e+110
-3.90358e+110
-5.00356e+110
-6.34869e+110
-7.97347e+110
-9.91148e+110
-1.21933e+111
-1.48445e+111
-1.78822e+111
-2.13131e+111
-2.51295e+111
-2.93066e+111
-3.37989e+111
-3.85369e+111
-4.3423e+111
-4.83268e+111
-5.30776e+111
-5.7454e+111
-6.11678e+111
-6.38428e+111
-6.49922e+111
-6.40119e+111
-6.02232e+111
-5.3025e+111
-4.21833e+111
-2.81639e+111
-1.23622e+111
1.56831e+110
7.98403e+110
8.9186e+111
1.52221e+112
2.37035e+112
3.40585e+112
4.66653e+112
6.16895e+112
7.93758e+112
9.98745e+112
1.23225e+113
1.49335e+113
1.77977e+113
2.08774e+113
2.41201e+113
2.74588e+113
3.08137e+113
3.40941e+113
3.72024e+113
4.00384e+113
4.25044e+113
4.45101e+113
4.5978e+113
4.68477e+113
4.708e+113
4.66592e+113
4.55946e+113
4.392e+113
4.16926e+113
3.89894e+113
3.59036e+113
3.25392e+113
2.90058e+113
2.54129e+113
2.18644e+113
1.84541e+113
1.52617e+113
1.23501e+113
9.76369e+112
7.52734e+112
5.64743e+112
4.11322e+112
2.89968e+112
1.97114e+112
1.28551e+112
7.98449e+111
4.66598e+111
2.4908e+111
1.07796e+111
1.07544e+110
-6.52763e+110
-1.57973e+111
-3.55758e+110
-1.89443e+109
-3.0331e+109
1.67505e+109
3.16665e+109
-1.54391e+109
-3.34725e+108
-9.82501e+107
-4.58385e+107
-4.29755e+107
1.24681e+108
1.88368e+108
7.18338e+107
4.38701e+107
1.36463e+107
-2.58068e+107
-1.44525e+108
-6.40594e+107
-2.77345e+107
7.40359e+104
1.41295e+106
7.12819e+105
-6.98627e+104
-1.85931e+106
-2.66791e+103
-4.50131e+105
-2.16535e+106
-8.3694e+106
-2.69625e+106
-1.45749e+106
-2.40861e+106
-8.4743e+106
-7.78996e+106
-7.37144e+106
-7.19439e+106
-5.27033e+106
-1.34421e+105
-6.22329e+26
-1.41913e+27
-6.58832e+26
-5.428e+26
-4.10512e+26
-2.74472e+26
-8.69405e+26
-2.56122e+26
5.87164e+26
1.00437e+27
1.26486e+27
1.78478e+27
2.9852e+26
2.19743e+27
4.74001e+27
7.48596e+27
1.17944e+28
1.78602e+28
2.82585e+28
4.7353e+28
9.46064e+28
2.10644e+29
4.6069e+29
7.12017e+29
1.18097e+30
2.39374e+30
4.93221e+30
7.84497e+30
1.40453e+31
2.28023e+31
3.52352e+31
5.54917e+31
9.54987e+31
1.59687e+32
2.57369e+32
4.16534e+32
6.56593e+32
1.08432e+33
1.91469e+33
3.45756e+33
6.11929e+33
1.07131e+34
1.84917e+34
3.11729e+34
5.17924e+34
8.38658e+34
1.33605e+35
2.11586e+35
3.39346e+35
5.47988e+35
8.82483e+35
1.4273e+36
2.34429e+36
3.91806e+36
6.53791e+36
1.10021e+37
1.86163e+37
3.15674e+37
5.34508e+37
9.0014e+37
1.52737e+38
2.66785e+38
4.87904e+38
7.59129e+38
3.47574e+38
-1.34223e+39
-2.79766e+39
-2.49707e+39
1.35113e+38
1.20916e+40
5.42977e+40
-6.55094e+40
-6.26576e+40
-9.99152e+40
-2.18734e+41
-5.78861e+41
-1.69223e+42
-4.38958e+42
-7.35468e+42
-6.25057e+42
-9.07308e+42
4.21861e+43
2.53947e+44
1.05713e+45
3.59122e+45
9.63228e+45
1.13775e+46
-1.05807e+45
-5.53154e+42
-2.3898e+42
-3.44708e+42
-1.24525e+43
1.3738e+43
-1.67796e+42
2.79766e+42
9.49179e+42
2.68479e+42
-3.79861e+42
3.3778e+42
8.21835e+42
2.44775e+43
5.36455e+43
1.07587e+44
-1.61919e+44
-1.78258e+44
-5.14973e+44
-1.84628e+45
4.69843e+43
1.0048e+44
1.15726e+44
1.15958e+44
-7.50501e+43
-9.18017e+44
-3.36722e+45
-9.72953e+45
-2.22062e+46
-1.84817e+46
-3.34265e+45
2.78048e+46
4.52264e+46
2.30509e+46
-3.01975e+47
3.60692e+46
8.85761e+46
1.07363e+47
-8.35016e+46
-3.49822e+47
-6.0764e+46
-8.26411e+45
-7.01694e+47
-1.54644e+48
-8.43186e+47
1.57781e+47
1.13237e+48
6.76578e+48
2.63702e+49
1.08571e+50
4.30789e+50
9.80352e+50
2.92279e+50
4.2703e+50
2.24136e+50
2.19773e+50
1.77144e+50
7.75007e+49
-7.15444e+49
-2.24175e+50
-2.7726e+50
-1.60221e+50
-2.31033e+50
-5.68131e+50
-1.07835e+50
9.5418e+50
2.3453e+51
4.72453e+51
1.46361e+52
4.9358e+52
8.98831e+52
2.29558e+53
4.10031e+53
7.59273e+53
1.42461e+54
2.60406e+54
4.71154e+54
8.84787e+54
1.51099e+55
2.65796e+55
5.1328e+55
1.04922e+56
2.20583e+56
4.71658e+56
7.24982e+56
1.32628e+57
2.23799e+57
3.37452e+57
5.18296e+57
7.68478e+57
1.16132e+58
1.74053e+58
2.42467e+58
3.30346e+58
4.44735e+58
6.36023e+58
1.10516e+59
2.2958e+59
4.82446e+59
9.59493e+59
1.69509e+60
8.52737e+59
-1.12429e+61
-2.81419e+61
-1.8222e+61
6.93895e+60
-5.54965e+60
-1.20322e+61
-3.7038e+61
-1.21098e+61
-7.20206e+61
-1.32604e+62
-2.47357e+62
-4.62924e+62
-8.22767e+62
-1.29003e+63
-1.20726e+63
-9.65433e+61
-2.22607e+62
-3.97369e+62
-4.18288e+62
2.91323e+61
1.67199e+63
5.31544e+63
7.00606e+63
-2.3534e+64
-1.95209e+65
-6.71937e+65
-1.64333e+66
2.42291e+65
-2.33677e+65
1.35347e+66
2.84797e+66
4.00199e+66
-1.04275e+67
2.73292e+66
1.64771e+67
2.35482e+67
5.13929e+67
1.04178e+68
1.68193e+68
2.67937e+68
3.60306e+68
3.35668e+68
-5.24401e+68
-3.6412e+69
-1.3492e+70
-4.08755e+70
-1.05497e+71
-2.26661e+71
-3.53219e+71
-5.47237e+70
2.04903e+70
8.38886e+71
4.22664e+71
2.22112e+70
1.23287e+71
-1.29889e+71
1.27078e+72
-1.0553e+72
-2.18067e+72
-4.04231e+72
-4.95875e+72
-5.40179e+72
-2.98216e+72
6.13463e+72
2.04327e+73
7.84366e+73
2.99295e+74
1.16023e+75
4.48871e+75
1.72614e+76
6.58514e+76
2.51638e+77
9.55866e+77
3.64593e+78
-5.67604e+74
-3.70963e+74
1.74618e+74
1.13325e+74
1.44579e+74
1.85685e+74
3.80459e+73
2.81758e+74
9.90453e+74
3.68513e+75
9.60425e+75
2.09226e+76
4.51707e+76
7.57762e+76
1.11441e+77
1.97702e+77
4.3659e+77
8.18868e+77
5.98289e+77
-6.01284e+77
-4.89206e+77
-1.29731e+77
3.68339e+77
9.75164e+76
-3.4453e+76
2.10315e+77
4.74689e+77
8.62074e+77
1.53512e+78
1.10077e+78
-3.14497e+78
-1.29929e+79
-2.37783e+79
-1.53154e+79
4.69575e+79
2.25503e+80
3.36849e+80
-1.01871e+81
-3.09115e+81
4.64831e+80
1.52863e+81
6.49052e+80
1.40501e+80
-1.40118e+80
1.00954e+80
1.23187e+80
4.95729e+80
1.1872e+81
1.7671e+81
4.9408e+80
9.25249e+78
-3.91654e+80
-2.88494e+80
7.64966e+80
1.87332e+81
2.29841e+81
1.53386e+81
-1.20307e+81
-3.11468e+81
-1.15332e+82
-4.99776e+81
-1.0099e+81
2.26216e+81
5.44757e+81
7.03894e+81
1.97994e+82
2.35772e+82
-1.09524e+82
-2.62571e+82
-1.82179e+82
8.39261e+80
2.94019e+82
7.60463e+82
1.33618e+83
1.78175e+83
1.73943e+83
-5.88323e+82
-9.29521e+83
1.47583e+83
-2.1772e+84
-8.11934e+84
-2.32486e+85
-3.72094e+83
1.69245e+84
-1.48849e+84
-1.36322e+85
-3.30375e+85
-3.77049e+85
-5.10411e+85
-9.7365e+85
-2.09967e+86
-4.76888e+86
-1.0954e+87
-2.50879e+87
-5.56964e+87
-1.18005e+88
-2.40101e+88
-4.76454e+88
-9.31978e+88
-1.79135e+89
-3.34879e+89
-6.27742e+89
-1.16474e+90
-2.13615e+90
-3.86658e+90
-6.90125e+90
-1.21389e+91
-2.10327e+91
-3.58881e+91
-6.02927e+91
-9.97174e+91
-1.62332e+92
-2.60077e+92
-4.1001e+92
-6.35934e+92
-9.70242e+92
-1.45586e+93
-2.14803e+93
-3.11561e+93
-4.44134e+93
-6.22035e+93
-8.55652e+93
-1.15565e+94
-1.53218e+94
-1.99402e+94
-2.54723e+94
-3.19294e+94
-3.92126e+94
-4.71452e+94
-5.56579e+94
-6.44511e+94
-7.32081e+94
-8.05526e+94
-8.72665e+94
-9.18791e+94
-9.41303e+94
-9.34712e+94
-8.94801e+94
-8.18032e+94
-7.00923e+94
-5.38319e+94
-3.20343e+94
-2.51504e+93
3.92777e+94
1.00036e+95
1.77187e+95
1.97989e+95
-1.02801e+95
-1.10446e+96
-3.04926e+96
-6.34905e+96
-1.28599e+97
-2.57646e+97
-4.80249e+97
-9.29606e+97
-1.74439e+98
-3.23464e+98
-5.94646e+98
-1.08166e+99
-1.94049e+99
-3.43595e+99
-6.00236e+99
-1.0344e+100
-1.75836e+100
-2.94807e+100
-4.87474e+100
-7.94902e+100
-1.27817e+101
-2.02644e+101
-3.16738e+101
-4.88013e+101
-7.41087e+101
-1.10905e+102
-1.63537e+102
-2.37575e+102
-3.39979e+102
-4.79216e+102
-6.65307e+102
-9.09808e+102
-1.22575e+103
-1.62765e+103
-2.1319e+103
-2.75789e+103
-3.53089e+103
-4.48792e+103
-5.6891e+103
-7.23795e+103
-9.31668e+103
-1.22454e+104
-1.65798e+104
-2.32698e+104
-3.39127e+104
-5.11501e+104
-7.92745e+104
-1.25137e+105
-1.99484e+105
-3.18931e+105
-5.08841e+105
-8.07528e+105
-1.27227e+106
-1.98777e+106
-3.07794e+106
-4.72195e+106
-7.17591e+106
-1.08015e+107
-1.61033e+107
-2.37767e+107
-3.47671e+107
-5.03439e+107
-7.21871e+107
-1.0249e+108
-1.44072e+108
-2.00505e+108
-2.76236e+108
-3.76713e+108
-5.08479e+108
-6.79247e+108
-8.97904e+108
-1.17444e+109
-1.51978e+109
-1.94547e+109
-2.46321e+109
-3.08425e+109
-3.81854e+109
-4.67377e+109
-5.65422e+109
-6.75951e+109
-7.98333e+109
-9.31211e+109
-1.07238e+110
-1.21871e+110
-1.36601e+110
-1.50902e+110
-1.64127e+110
-1.755e+110
-1.84089e+110
-1.88763e+110
-1.88116e+110
-1.80358e+110
-1.63193e+110
-1.33769e+110
-8.89157e+109
-2.61388e+109
5.39458e+109
1.43139e+110
2.19634e+110
2.4338e+110
1.62409e+110
-2.62578e+109
7.13348e+109
1.59907e+111
2.1746e+111
2.78245e+111
3.46549e+111
4.23698e+111
5.09624e+111
6.03758e+111
7.04093e+111
8.07751e+111
9.11206e+111
1.01042e+112
1.10099e+112
1.17825e+112
1.23759e+112
1.27469e+112
1.28583e+112
1.26821e+112
1.22018e+112
1.14149e+112
1.03334e+112
8.98424e+111
7.40843e+111
5.65901e+111
3.79838e+111
1.89487e+111
1.88824e+109
-1.76114e+111
-3.3826e+111
-4.79224e+111
-5.9489e+111
-6.82545e+111
-7.40968e+111
-7.70419e+111
-7.72538e+111
-7.50163e+111
-7.071e+111
-6.47842e+111
-5.77272e+111
-5.00338e+111
-4.2173e+111
-3.45559e+111
-2.75101e+111
-2.12642e+111
-1.59529e+111
-1.16502e+111
-8.41363e+110
-6.21606e+110
-4.86284e+110
-3.94388e+110
-2.30123e+110
6.77874e+109
4.39791e+110
1.25051e+109
4.27211e+108
-1.0793e+108
-1.16969e+107
2.90639e+107
6.63826e+106
2.77521e+106
2.94621e+107
7.56378e+107
2.05528e+108
2.18811e+107
1.07633e+107
8.49585e+106
-4.95777e+106
-7.6406e+106
-1.6397e+106
-4.66921e+106
2.39192e+106
1.8756e+106
4.19595e+106
-1.19533e+105
6.22352e+105
-4.91475e+103
1.55145e+105
2.93762e+105
1.75738e+106
1.02155e+105
-6.30434e+105
-1.82918e+106
-5.20692e+105
-1.73499e+105
4.33905e+104
5.47767e+105
1.29949e+106
1.2322e+106
-8.44415e+26
-5.31709e+26
-3.23738e+26
-2.27688e+26
-1.30341e+26
-1.08677e+26
-2.04488e+26
-1.90588e+25
1.91514e+26
2.58125e+26
3.18492e+26
4.28054e+26
3.23381e+26
1.49873e+27
4.31305e+27
6.28738e+27
1.12221e+28
1.77609e+28
2.74075e+28
3.7648e+28
5.26772e+28
9.887e+28
6.09831e+29
2.11558e+30
3.10801e+30
4.98336e+30
4.45092e+30
7.40859e+30
1.29434e+31
2.14128e+31
3.50886e+31
5.84011e+31
9.79972e+31
1.64882e+32
2.76535e+32
4.6317e+32
7.79588e+32
1.36091e+33
2.48525e+33
4.66833e+33
8.56999e+33
1.57344e+34
2.87203e+34
5.16635e+34
9.22567e+34
1.59886e+35
2.62555e+35
3.99317e+35
5.8532e+35
8.38068e+35
1.34701e+36
2.26271e+36
3.90071e+36
6.81507e+36
1.17407e+37
2.02248e+37
3.4464e+37
5.76546e+37
9.58189e+37
1.63805e+38
3.06582e+38
5.86627e+38
9.13634e+38
8.54175e+38
1.70324e+38
-2.62224e+38
1.29929e+39
-1.28024e+39
-1.96445e+39
-6.37428e+39
4.78854e+38
-4.30383e+40
-7.3367e+40
-1.55051e+41
-4.28655e+41
-1.3328e+42
-3.75268e+42
-8.09409e+42
-2.36472e+43
-7.71344e+43
-2.63521e+44
-9.05804e+44
-3.16112e+45
-1.09937e+46
-3.82838e+46
-1.34889e+47
3.17714e+46
8.16868e+46
1.26281e+43
-1.61842e+43
-1.81173e+43
-2.05447e+43
7.85381e+41
7.09801e+41
1.72337e+42
1.92808e+42
-4.36017e+41
-4.28425e+41
9.94773e+41
-2.08499e+42
-2.50807e+43
-3.07035e+43
9.31732e+42
-8.47893e+43
-1.15551e+44
-2.50157e+44
-4.6624e+44
-6.74579e+43
6.28571e+43
2.56078e+44
-2.01447e+44
-5.8955e+44
-7.46952e+44
3.77319e+45
3.06563e+46
7.1873e+46
4.81159e+46
-1.30685e+46
1.06998e+46
-3.13299e+45
-8.14295e+46
-3.30075e+47
-1.01667e+47
3.56191e+46
2.14403e+46
-6.00007e+46
-9.37411e+46
6.56084e+46
-1.26424e+47
-8.94731e+47
-3.20125e+48
-2.7561e+48
-1.18529e+48
2.96882e+48
8.58484e+48
3.3365e+49
1.28109e+50
7.09295e+50
8.41731e+50
1.27251e+50
1.64156e+50
-3.6968e+49
-8.48625e+49
-1.55361e+50
-2.27162e+50
-2.73317e+50
-2.60594e+50
-1.85632e+50
-1.42528e+50
-3.09761e+50
-7.29363e+50
-7.15221e+50
-4.19512e+50
9.84098e+50
5.83046e+51
2.39115e+52
4.46827e+52
1.05567e+53
1.97531e+53
3.61451e+53
6.899e+53
1.29179e+54
2.29942e+54
4.16631e+54
8.06998e+54
1.6848e+55
3.29835e+55
6.37182e+55
9.0432e+55
1.62979e+56
2.72393e+56
6.60672e+56
8.52821e+56
1.4229e+57
2.36983e+57
4.46934e+57
7.02148e+57
7.28567e+57
7.47042e+57
8.53577e+57
6.48343e+57
9.42623e+56
-4.86292e+57
1.43561e+56
2.95697e+58
6.66642e+58
-1.58168e+59
-2.2827e+60
-1.09352e+61
-3.27076e+61
-5.43159e+61
-3.22572e+61
7.04961e+60
-1.87471e+60
-2.09779e+60
-5.89757e+60
-3.52867e+60
-2.91887e+61
-6.66526e+61
-1.41018e+62
-2.67354e+62
-4.35114e+62
-5.56237e+62
-3.85728e+62
7.24408e+61
-2.94098e+60
-9.57192e+61
-1.46325e+62
-1.85138e+61
3.83504e+62
-4.18515e+61
-8.01923e+63
-4.12632e+64
-1.33215e+65
-2.74667e+65
-3.44661e+65
4.45721e+64
6.25606e+64
-1.32109e+66
-5.55847e+66
-1.67e+67
-4.05212e+67
-6.4741e+67
1.70311e+67
1.6123e+67
2.52716e+67
4.96678e+67
8.44064e+67
1.59406e+68
3.8786e+68
2.15498e+68
-6.46037e+68
-3.09161e+69
-6.77227e+69
-4.08562e+69
4.17593e+70
2.76781e+71
4.37046e+71
3.11215e+72
4.19652e+72
-7.70543e+70
2.13118e+71
1.48122e+71
-8.21932e+70
7.06126e+70
2.17831e+71
-5.91091e+71
-1.04048e+72
-1.61217e+72
-1.85416e+72
-1.84419e+72
-9.07173e+71
1.83508e+73
6.30869e+73
2.15922e+74
7.20197e+74
2.3876e+75
7.72725e+75
2.4276e+76
7.31236e+76
2.05753e+77
5.11907e+77
9.66728e+77
-1.32899e+74
-3.20733e+73
8.62282e+73
6.78249e+73
5.9884e+73
1.88995e+73
-7.10418e+73
-4.33697e+73
3.37698e+74
1.79697e+75
4.76343e+75
9.96417e+75
1.50719e+76
1.79212e+76
3.33499e+76
8.84243e+76
1.7243e+77
2.90503e+77
3.10961e+77
-7.69397e+76
-9.24037e+76
1.23201e+77
2.86667e+77
1.54577e+77
1.11356e+77
2.28195e+77
3.36946e+77
3.75849e+77
-2.22681e+77
-3.03389e+78
-1.10873e+79
-3.16755e+79
-9.52881e+79
-3.48458e+80
-9.95074e+80
-2.85631e+81
-5.19819e+81
4.59449e+80
1.88582e+81
-8.56037e+80
-5.90466e+81
-2.96809e+82
-4.77864e+80
-5.80845e+79
3.14362e+80
-3.3364e+80
3.20987e+80
5.1224e+80
8.03558e+80
3.93215e+80
-2.35338e+80
-3.49993e+80
-1.55801e+80
1.99285e+80
1.04485e+80
-3.82334e+80
-1.84697e+81
-5.02423e+81
-8.56846e+81
-7.49279e+81
1.55348e+80
1.38208e+81
2.1866e+81
5.24198e+81
3.28943e+81
1.43731e+79
-1.51018e+82
-6.64311e+82
-2.55613e+82
-1.94256e+82
-1.27417e+82
9.73025e+81
2.55062e+82
6.36156e+81
4.32326e+82
-3.81465e+82
-4.07018e+83
-7.65721e+83
3.42629e+84
-5.22696e+83
-4.2121e+84
-6.05793e+84
1.17057e+85
5.52489e+85
-3.54575e+85
-1.66053e+85
-2.3167e+85
-3.74003e+85
-6.53899e+85
-1.25494e+86
-2.57463e+86
-5.50658e+86
-1.17822e+87
-2.45542e+87
-4.77807e+87
-8.10376e+87
-8.6736e+87
-2.74669e+88
-4.11474e+88
-7.31607e+88
-1.50164e+89
-2.60051e+89
-4.49053e+89
-7.66026e+89
-1.2935e+90
-2.1459e+90
-3.498e+90
-5.59198e+90
-8.75011e+90
-1.33751e+91
-1.99218e+91
-2.88167e+91
-4.02892e+91
-5.40601e+91
-6.88159e+91
-8.13819e+91
-8.54883e+91
-7.00204e+91
-1.66541e+91
1.03173e+92
3.31883e+92
7.29672e+92
1.37808e+93
2.38244e+93
3.87283e+93
6.0044e+93
8.95682e+93
1.29258e+94
1.80934e+94
2.46199e+94
3.27856e+94
4.25576e+94
5.37969e+94
6.74794e+94
8.20637e+94
9.77735e+94
1.1417e+95
1.30728e+95
1.46866e+95
1.62036e+95
1.75865e+95
1.88356e+95
2.00267e+95
2.13008e+95
2.25623e+95
2.20844e+95
1.29615e+95
-2.09416e+95
-1.03385e+96
-3.91801e+96
-7.94825e+96
-1.24996e+97
-7.51232e+96
-2.56755e+97
-4.16642e+97
-7.56031e+97
-1.34008e+98
-2.24597e+98
-3.66895e+98
-6.1764e+98
-1.02077e+99
-1.66188e+99
-2.65795e+99
-4.17252e+99
-6.4195e+99
-9.66147e+99
-1.41898e+100
-2.02709e+100
-2.80359e+100
-3.72763e+100
-4.7102e+100
-5.53963e+100
-5.79989e+100
-4.75356e+100
-1.18245e+100
6.81836e+100
2.20911e+101
4.86977e+101
9.22049e+101
1.59917e+102
2.60975e+102
4.06185e+102
6.07415e+102
8.76311e+102
1.22202e+103
1.64751e+103
2.14399e+103
2.6826e+103
3.20221e+103
3.59184e+103
3.66492e+103
3.12299e+103
1.50665e+103
-1.86481e+103
-7.95973e+103
-1.80975e+104
-3.39995e+104
-5.78121e+104
-9.20651e+104
-1.3949e+105
-2.02568e+105
-2.82605e+105
-3.7802e+105
-4.81409e+105
-5.74707e+105
-6.21573e+105
-5.55729e+105
-2.63653e+105
4.40464e+105
1.85005e+106
4.41487e+106
8.8065e+106
1.60044e+107
2.74065e+107
4.49669e+107
7.13638e+107
1.10198e+108
1.6622e+108
2.45577e+108
3.56075e+108
5.07434e+108
7.11515e+108
9.82492e+108
1.33693e+109
1.79373e+109
2.37389e+109
3.10009e+109
3.99596e+109
5.08513e+109
6.39004e+109
7.93042e+109
9.7217e+109
1.17733e+110
1.4087e+110
1.66557e+110
1.94622e+110
2.2479e+110
2.56675e+110
2.89755e+110
3.23307e+110
3.56205e+110
3.86477e+110
4.10497e+110
4.2188e+110
4.11027e+110
3.67813e+110
2.91081e+110
2.04577e+110
1.60832e+110
1.88644e+110
2.44675e+110
1.1619e+110
-1.4883e+110
-4.93083e+110
-9.41533e+110
-1.50688e+111
-2.20983e+111
-3.0701e+111
-4.10362e+111
-5.32071e+111
-6.72488e+111
-8.31174e+111
-1.00679e+112
-1.19702e+112
-1.39851e+112
-1.60696e+112
-1.81716e+112
-2.0232e+112
-2.21873e+112
-2.39725e+112
-2.55243e+112
-2.67848e+112
-2.77048e+112
-2.82468e+112
-2.83869e+112
-2.81169e+112
-2.74447e+112
-2.63942e+112
-2.50036e+112
-2.33236e+112
-2.14146e+112
-1.93431e+112
-1.71784e+112
-1.49888e+112
-1.28387e+112
-1.07851e+112
-8.87596e+111
-7.14799e+111
-5.62582e+111
-4.32163e+111
-3.23564e+111
-2.35765e+111
-1.66948e+111
-1.1484e+111
-7.69293e+110
-5.05031e+110
-3.21055e+110
-1.66616e+110
-7.34262e+108
1.20375e+110
3.26329e+109
1.16672e+110
2.00207e+108
-1.84538e+107
-1.73073e+108
7.14396e+107
1.76771e+107
2.71047e+106
6.54111e+106
2.42032e+107
6.34918e+107
8.80574e+107
7.74346e+107
6.68867e+106
-2.65497e+105
-1.52836e+106
3.34078e+106
-7.69139e+105
-1.21489e+106
1.58604e+106
1.46961e+106
1.20549e+106
2.77752e+104
1.23416e+105
-3.14911e+105
-2.72072e+105
3.12016e+104
1.32936e+105
-1.56171e+105
-2.99743e+105
-4.08575e+105
1.69196e+105
3.199e+105
4.03693e+105
5.1821e+105
5.09309e+105
-2.91863e+104
-5.78616e+26
-1.4436e+26
-1.48498e+26
-6.31023e+25
-2.36091e+25
-1.67673e+25
-4.05469e+25
-1.55709e+25
-3.97551e+25
-8.27776e+25
-2.94647e+25
1.3318e+26
4.58944e+26
1.89513e+27
4.55237e+27
8.6322e+27
1.81308e+28
3.60165e+28
8.0023e+28
2.26859e+29
8.75526e+29
2.77824e+30
4.98635e+30
7.94458e+27
2.35023e+28
2.75396e+30
3.58122e+30
5.61787e+30
9.63025e+30
1.61095e+31
2.69542e+31
4.53848e+31
7.58594e+31
1.28988e+32
2.15494e+32
3.45525e+32
5.10137e+32
5.17365e+32
-7.43764e+32
-6.38969e+33
-1.35823e+34
-2.84197e+34
-5.85278e+34
-1.19793e+35
-2.42538e+35
-4.88149e+35
-8.8103e+35
-1.3307e+36
-1.10534e+36
-1.27688e+35
-1.69545e+35
-8.26399e+35
-2.01024e+36
-4.16409e+36
-8.25023e+36
-1.55539e+37
-2.7217e+37
-4.22225e+37
-5.06971e+37
-3.3827e+37
2.03123e+36
6.81591e+36
5.02887e+37
2.38509e+38
8.3706e+37
-6.49847e+38
-1.2691e+39
-2.79258e+39
-4.04594e+39
-5.41438e+39
-1.37886e+39
1.40211e+40
1.29053e+41
5.38133e+41
2.22282e+42
5.84749e+42
2.40363e+43
9.62415e+43
-5.55983e+43
-1.51699e+44
-4.58466e+44
-1.33258e+45
-3.69055e+45
-9.08822e+45
-1.9539e+46
-3.27792e+46
1.26044e+46
2.12818e+46
6.00417e+43
1.12043e+44
-2.75781e+42
-4.26196e+42
-7.41069e+41
1.44467e+41
2.95722e+41
-3.55341e+41
-8.03203e+41
-1.45151e+42
-4.6118e+42
-1.32062e+43
-3.21691e+43
-3.82775e+43
-1.01848e+43
-5.6855e+43
-5.36559e+43
-1.03409e+44
-1.20579e+44
6.83133e+42
1.43866e+44
5.93103e+44
1.54542e+44
9.13463e+45
9.47868e+45
2.78336e+46
6.20209e+46
7.43299e+46
3.39577e+46
-1.16608e+46
-7.06818e+45
-4.29949e+46
-1.5996e+47
-5.16847e+47
-1.62455e+46
1.50645e+46
2.27486e+46
9.80437e+46
4.09429e+47
-4.6604e+45
-1.49862e+47
-4.4905e+47
-9.67685e+47
-5.65692e+45
4.14093e+48
7.86766e+48
2.24344e+49
6.78781e+49
2.0524e+50
4.66847e+50
3.99404e+50
5.50719e+49
3.98607e+49
-7.09652e+49
-1.107e+50
-1.54692e+50
-1.90255e+50
-2.07993e+50
-1.89109e+50
-1.27414e+50
-1.34532e+50
-2.74167e+50
-4.22154e+50
-4.91175e+50
-3.69509e+50
3.8488e+50
1.82999e+51
-5.55304e+51
-6.79315e+51
8.35334e+52
1.79411e+53
3.42951e+53
6.73308e+53
1.25477e+54
2.23248e+54
4.63395e+54
1.06409e+55
2.26879e+55
4.22239e+55
6.93007e+55
1.03879e+56
1.55705e+56
2.26298e+56
3.27672e+56
2.77616e+56
9.33326e+56
2.39576e+57
4.13032e+57
5.86339e+57
5.20617e+57
2.62094e+57
3.0749e+57
-2.34199e+57
-1.52113e+58
-3.911e+58
-9.0654e+58
-2.53852e+59
-8.4169e+59
-2.55244e+60
-7.01779e+60
-1.67908e+61
-3.01125e+61
-3.02709e+61
-8.73841e+60
3.09906e+60
1.49202e+60
4.65276e+60
7.67078e+60
1.24562e+61
1.11355e+61
5.75633e+60
-1.16931e+61
-3.70106e+61
-4.07679e+61
3.24938e+61
2.28306e+62
4.24234e+62
4.94427e+62
5.70546e+62
6.84041e+62
8.45366e+62
6.93767e+62
-1.30905e+63
-8.39352e+63
-1.82497e+64
1.05271e+64
3.33814e+64
-8.22962e+64
9.52427e+64
1.59461e+65
-4.2827e+65
-2.88321e+66
-7.79849e+66
-1.30525e+67
-1.27805e+67
6.14504e+66
-1.36735e+65
-7.76836e+66
-2.85282e+67
-1.67704e+68
1.02973e+68
1.54508e+68
2.56753e+67
5.85968e+68
3.13419e+69
2.49976e+69
5.30332e+69
2.30206e+70
3.2686e+69
-1.71122e+71
1.21795e+72
1.79005e+72
-2.62404e+71
1.41988e+72
3.80174e+71
-1.30258e+71
-9.63711e+70
-4.37536e+70
-2.99288e+71
-4.04567e+71
-4.52857e+71
-7.04787e+70
1.56476e+72
7.56477e+72
3.17477e+73
9.91056e+73
3.03243e+74
9.02358e+74
2.63472e+75
7.4054e+75
1.97921e+76
4.92968e+76
1.1042e+77
2.06275e+77
2.58522e+77
1.64165e+73
8.8773e+73
1.22053e+74
1.19281e+74
9.06638e+73
2.64309e+72
-1.47365e+74
-2.82529e+74
-4.37522e+74
-1.7985e+75
4.88779e+75
1.53116e+76
-6.4057e+76
-1.15813e+77
-1.7086e+77
-9.296e+76
7.99125e+76
4.15268e+76
4.1096e+75
-7.0991e+76
-5.0073e+76
6.45754e+76
-9.43746e+76
-4.80142e+77
-3.4095e+77
-8.9293e+76
5.49539e+76
-3.03335e+77
-2.56296e+78
-1.02118e+79
-3.45049e+79
-1.13359e+80
-3.72139e+80
-7.3921e+80
-2.6185e+81
-2.76762e+81
-2.07382e+81
4.29277e+80
-1.63459e+80
-1.94288e+81
-3.88448e+81
-7.50024e+81
1.42033e+80
-1.54e+80
-6.88439e+80
-1.06568e+81
-2.8505e+80
-1.08832e+80
3.42099e+80
3.4833e+80
-2.24972e+80
-3.11577e+80
-2.60766e+80
-3.0304e+80
-6.59988e+80
-1.39221e+81
-3.38911e+81
-6.15308e+81
-7.94984e+81
-8.37766e+81
-3.10419e+81
1.99971e+81
5.2365e+81
9.4315e+81
7.87357e+81
-6.78769e+80
-1.84214e+82
-4.98321e+82
-1.16228e+82
-1.97294e+82
-2.34899e+82
1.52154e+82
1.24915e+83
4.03172e+83
2.07705e+82
4.8153e+82
1.3912e+83
5.23093e+83
9.60765e+83
-7.36903e+83
-1.96283e+84
-1.24473e+84
2.531e+84
1.74931e+84
-1.9559e+85
-2.26836e+85
-3.3334e+85
-3.57085e+85
-6.965e+85
-1.41046e+86
-2.84727e+86
-5.71845e+86
-1.14095e+87
-2.21149e+87
-4.04528e+87
-6.81526e+87
-1.06641e+88
-1.91079e+88
-2.55725e+88
-4.2171e+88
-7.87539e+88
-1.0774e+89
-1.7046e+89
-1.98852e+89
-5.88377e+89
-9.30798e+89
-1.39019e+90
-1.96971e+90
-2.633e+90
-3.21752e+90
-3.32798e+90
-2.15326e+90
1.83242e+90
1.13274e+91
3.08741e+91
6.78039e+91
1.33509e+92
2.4507e+92
4.27218e+92
7.14533e+92
1.15368e+93
1.80548e+93
2.7467e+93
4.07089e+93
5.88433e+93
8.29822e+93
1.14288e+94
1.54583e+94
2.00224e+94
2.37696e+94
3.09251e+94
4.11041e+94
4.78635e+94
6.43851e+94
7.64641e+94
8.88267e+94
1.01141e+95
1.13073e+95
1.24136e+95
1.33815e+95
1.4174e+95
1.47664e+95
1.50793e+95
1.48277e+95
1.30391e+95
7.36171e+94
1.95973e+94
-6.23378e+95
-1.78087e+96
-5.58203e+96
-1.43486e+97
-3.30418e+97
-2.88466e+97
-1.61615e+97
-2.86129e+97
-2.55821e+97
-3.27844e+97
-8.92112e+97
-1.77418e+98
-2.70791e+98
-4.20909e+98
-6.24592e+98
-8.92071e+98
-1.20573e+99
-1.50149e+99
-1.62113e+99
-1.23162e+99
3.07483e+98
4.15334e+99
1.22989e+100
2.80425e+100
5.66561e+100
1.063e+101
1.89233e+101
3.23334e+101
5.3394e+101
8.5591e+101
1.33577e+102
2.03366e+102
3.02464e+102
4.39881e+102
6.25951e+102
8.71875e+102
1.18891e+103
1.58716e+103
2.07384e+103
2.65126e+103
3.31443e+103
4.04871e+103
4.82819e+103
5.61584e+103
6.36828e+103
7.05047e+103
7.66986e+103
8.34613e+103
9.44043e+103
1.17807e+104
1.70391e+104
2.83495e+104
5.12973e+104
9.54795e+104
1.76917e+105
3.21716e+105
5.71523e+105
9.91507e+105
1.68183e+106
2.79383e+106
4.55244e+106
7.2867e+106
1.14704e+107
1.77756e+107
2.71402e+107
4.08543e+107
6.06644e+107
8.88986e+107
1.28611e+108
1.83745e+108
2.59308e+108
3.61548e+108
4.98128e+108
6.78267e+108
9.1284e+108
1.21441e+109
1.59713e+109
2.07659e+109
2.66939e+109
3.39265e+109
4.26325e+109
5.29691e+109
6.50706e+109
7.90361e+109
9.49161e+109
1.12699e+110
1.32299e+110
1.53544e+110
1.76168e+110
1.99794e+110
2.23921e+110
2.47875e+110
2.70708e+110
2.91003e+110
3.06542e+110
3.1395e+110
3.08784e+110
2.87229e+110
2.50518e+110
2.09774e+110
1.80041e+110
1.5185e+110
7.85886e+109
-2.41595e+109
-2.78282e+110
-5.47906e+110
-9.14066e+110
-1.37253e+111
-1.93484e+111