/*--------------------------------*- C++ -*----------------------------------*\
  =========                 |
  \\      /  F ield         | OpenFOAM: The Open Source CFD Toolbox
   \\    /   O peration     | Website:  https://openfoam.org
    \\  /    A nd           | Version:  9
     \\/     M anipulation  |
\*---------------------------------------------------------------------------*/
FoamFile
{
    format      ascii;
    class       volScalarField;
    location    "1";
    object      f_7;
}
// * * * * * * * * * * * * * * * * * * * * * * * * * * * * * * * * * * * * * //

dimensions      [1 -3 0 0 0 0 0];

internalField   nonuniform List<scalar> 
120000
(
-2.33565e+26
-6.37093e+26
-4.59753e+26
5.82683e+26
3.82236e+27
1.12181e+28
5.76021e+27
1.19248e+28
1.60852e+28
2.76257e+28
4.37366e+28
6.65416e+28
9.15664e+28
1.16834e+29
1.56447e+29
2.15772e+29
2.90676e+29
3.80645e+29
5.22516e+29
7.97867e+29
1.19783e+30
1.84554e+30
3.07239e+30
5.2775e+30
8.67862e+30
1.39924e+31
2.29661e+31
4.0203e+31
6.7314e+31
1.0528e+32
1.58471e+32
2.51114e+32
4.19603e+32
6.70953e+32
1.01388e+33
1.50936e+33
2.30905e+33
3.6677e+33
5.76063e+33
8.81845e+33
1.34083e+34
2.05453e+34
3.23623e+34
5.3457e+34
9.45247e+34
1.78395e+35
3.44879e+35
6.4525e+35
1.10976e+36
1.70169e+36
2.44391e+36
3.38992e+36
4.53578e+36
5.86062e+36
7.56335e+36
1.06949e+37
1.80934e+37
3.58618e+37
7.62954e+37
1.57895e+38
2.94743e+38
4.68717e+38
5.74194e+38
3.84887e+38
-5.2292e+38
6.21316e+39
5.96536e+39
-4.50695e+40
-8.4936e+40
-1.77144e+41
-3.26695e+41
-4.04556e+41
-2.54375e+41
-8.78765e+40
-2.20979e+41
-3.96144e+41
-8.62272e+41
-8.53947e+41
-1.11217e+42
-3.53028e+42
-8.48593e+42
-2.42332e+43
-6.57503e+43
-1.69288e+44
-3.99174e+44
-7.99618e+44
-1.16422e+45
-2.37438e+44
-4.19205e+43
-1.47244e+44
-3.86616e+44
-4.23056e+44
2.52908e+42
2.32893e+42
-4.01071e+42
-3.57982e+43
-8.13454e+43
-1.52381e+43
-5.29821e+43
-1.27927e+44
-3.44686e+44
-7.57553e+44
-1.23062e+45
-4.47429e+43
-2.53984e+43
-8.84549e+43
1.60482e+44
-1.61243e+44
-6.46626e+44
-1.2457e+45
-2.90416e+45
-8.29797e+45
-2.32137e+46
-6.46568e+46
-1.72121e+47
-4.25794e+47
-9.53819e+47
-1.65514e+48
-1.05253e+48
-1.05534e+48
-1.73078e+48
-2.78754e+48
1.90391e+47
2.79804e+47
3.7914e+47
6.60171e+47
5.40178e+47
1.37838e+48
3.61776e+48
-2.20939e+48
-3.6663e+49
1.79815e+50
3.70272e+50
6.93601e+50
9.93725e+50
3.29691e+50
-1.6854e+51
-2.54974e+51
1.27357e+51
1.35663e+51
-2.81204e+51
-8.56858e+51
-1.23706e+52
-1.65606e+52
-2.01366e+52
-2.20969e+52
-2.14314e+52
-1.77429e+52
-1.16887e+52
-5.59899e+51
-2.36628e+51
5.8173e+50
9.05792e+51
3.43124e+52
7.23629e+52
1.59035e+53
2.86128e+53
6.24449e+53
1.22841e+54
2.50799e+54
5.16145e+54
1.06069e+55
2.20987e+55
3.80744e+55
5.10456e+55
8.3453e+55
1.86724e+56
3.9092e+56
8.26382e+56
1.54875e+57
2.55493e+57
3.86222e+57
6.19722e+57
8.46333e+57
1.30268e+58
1.88191e+58
2.58677e+58
3.29218e+58
3.69945e+58
3.93255e+58
3.43778e+58
1.81976e+58
-4.35162e+57
1.48256e+58
2.46974e+59
1.13311e+60
3.44122e+60
8.25273e+60
1.61782e+61
2.49338e+61
2.74433e+61
1.21375e+61
-5.74973e+59
-1.37026e+61
8.47141e+59
6.55461e+60
1.29561e+61
1.68574e+60
1.31618e+61
8.01477e+61
3.50475e+62
1.20563e+63
3.72699e+63
1.13077e+64
3.34651e+64
1.61809e+64
3.64389e+64
9.25252e+64
2.43949e+65
6.48253e+65
1.71679e+66
4.51131e+66
1.16782e+67
3.03862e+67
8.14738e+67
6.56205e+67
-9.75818e+66
9.35919e+67
5.27183e+67
6.38005e+67
2.32966e+68
8.03099e+67
-6.26404e+68
-4.09193e+67
-2.95083e+68
-4.1791e+68
6.96173e+68
2.79378e+69
8.10302e+69
1.91891e+70
4.12118e+70
8.10809e+70
1.4203e+71
2.53256e+71
5.26906e+71
1.15666e+72
2.12097e+72
2.43131e+72
4.26613e+71
8.58161e+71
3.79925e+72
5.23512e+72
5.86111e+72
6.77456e+72
5.55225e+72
1.17099e+73
-6.07622e+72
-1.16528e+73
-1.7233e+73
-1.35621e+73
-1.24359e+73
-6.0384e+72
2.61015e+72
4.4991e+71
-1.40892e+73
-5.43155e+73
-8.99228e+73
-1.55673e+74
-2.11659e+74
-1.80853e+74
-3.28906e+73
2.72454e+73
9.62035e+73
1.40247e+75
3.21881e+75
2.5823e+75
3.43447e+75
5.26444e+75
8.38072e+75
1.37627e+76
2.4616e+76
4.68546e+76
9.27094e+76
1.86009e+77
3.73188e+77
7.51644e+77
1.50012e+78
2.71692e+78
4.21014e+78
4.93895e+78
1.39436e+78
-1.38594e+78
5.97047e+78
-2.06912e+78
-5.77928e+78
-1.11582e+79
-1.50505e+79
-1.57428e+79
-2.00727e+79
-2.6657e+79
-3.41464e+79
-4.99708e+79
-8.1975e+79
-1.28467e+80
-1.79179e+80
-2.19676e+80
-2.29035e+80
-3.93688e+80
-6.55868e+80
-1.76568e+81
-3.40093e+81
6.60844e+81
2.12378e+82
1.94798e+82
1.11684e+82
5.45407e+80
-5.50169e+81
-2.10737e+80
2.49639e+81
4.38502e+81
1.80564e+81
-2.58957e+81
-8.5846e+81
-1.20567e+82
-1.18444e+82
-9.20633e+81
-1.11239e+82
-3.08673e+82
-6.8567e+82
-1.02921e+83
-1.42805e+83
-1.52275e+83
-1.31811e+83
-4.51425e+82
2.21691e+82
-4.09808e+81
-2.99484e+82
-7.18029e+82
1.47389e+83
3.17846e+83
5.22005e+83
7.69168e+83
5.91189e+83
4.81472e+83
5.57804e+83
5.95609e+83
6.38104e+83
8.80586e+83
1.13243e+84
6.65412e+83
-1.22727e+84
-3.36943e+84
-9.46238e+84
-1.59547e+85
1.98313e+84
6.77386e+85
-6.2096e+84
-1.67985e+85
-4.20463e+85
-4.45762e+84
9.42504e+84
1.20039e+86
5.98422e+86
1.96164e+87
5.44255e+87
1.39879e+88
3.42492e+88
8.04552e+88
1.82211e+89
4.00517e+89
8.58079e+89
1.79554e+90
3.67696e+90
7.37925e+90
1.4534e+91
2.81227e+91
5.34805e+91
1.00025e+92
1.84129e+92
3.3373e+92
5.95718e+92
1.04747e+93
1.8145e+93
3.09685e+93
5.20774e+93
8.6287e+93
1.40862e+94
2.26553e+94
3.58952e+94
5.60213e+94
8.61129e+94
1.30354e+95
1.94298e+95
2.85125e+95
4.11889e+95
5.85687e+95
8.1972e+95
1.12916e+96
1.53069e+96
2.04173e+96
2.67963e+96
3.46027e+96
4.39485e+96
5.49015e+96
6.74515e+96
8.15191e+96
9.68107e+96
1.1313e+97
1.29979e+97
1.46814e+97
1.62992e+97
1.77797e+97
1.90471e+97
2.00244e+97
2.06391e+97
2.0833e+97
2.05861e+97
1.99739e+97
1.93065e+97
1.94273e+97
2.23449e+97
3.25721e+97
5.91247e+97
1.19364e+98
2.47564e+98
5.12157e+98
1.04209e+99
2.07538e+99
4.06833e+99
7.86508e+99
1.49665e+100
2.8044e+100
5.17727e+100
9.42114e+100
1.69042e+101
2.99165e+101
5.22329e+101
8.99845e+101
1.52979e+102
2.56667e+102
4.25008e+102
6.94569e+102
1.12026e+103
1.78314e+103
2.80088e+103
4.34124e+103
6.63914e+103
1.00174e+104
1.49109e+104
2.18946e+104
3.17125e+104
4.5309e+104
6.38584e+104
8.87945e+104
1.21843e+105
1.65061e+105
2.20914e+105
2.92408e+105
3.83379e+105
4.99023e+105
6.46907e+105
8.38751e+105
1.09353e+106
1.44267e+106
1.93863e+106
2.66868e+106
3.77685e+106
5.49824e+106
8.21207e+106
1.25227e+107
1.9382e+107
3.0272e+107
4.74747e+107
7.4465e+107
1.16478e+108
1.81314e+108
2.80477e+108
4.30745e+108
6.56324e+108
9.91756e+108
1.48578e+109
2.2064e+109
3.24736e+109
4.73642e+109
6.84555e+109
9.80336e+109
1.39099e+110
1.95538e+110
2.72315e+110
3.75684e+110
5.13405e+110
6.94962e+110
9.31753e+110
1.23724e+111
1.62704e+111
2.11887e+111
2.73243e+111
3.48902e+111
4.41101e+111
5.52107e+111
6.84112e+111
8.39102e+111
1.0187e+112
1.22401e+112
1.45536e+112
1.71218e+112
1.99271e+112
2.29379e+112
2.61061e+112
2.93642e+112
3.26213e+112
3.57585e+112
3.8621e+112
4.10095e+112
4.26688e+112
4.32797e+112
4.24623e+112
3.98057e+112
3.49362e+112
2.75987e+112
1.76551e+112
4.89671e+111
-1.22402e+112
-3.53686e+112
-6.71948e+112
-1.11164e+113
-1.67692e+113
-2.38132e+113
-3.23579e+113
-4.2549e+113
-5.45169e+113
-6.83469e+113
-8.40578e+113
-1.01588e+114
-1.20788e+114
-1.41414e+114
-1.63124e+114
-1.85483e+114
-2.07973e+114
-2.30004e+114
-2.50943e+114
-2.70138e+114
-2.86947e+114
-3.00778e+114
-3.11114e+114
-3.1755e+114
-3.1981e+114
-3.17771e+114
-3.11468e+114
-3.01098e+114
-2.87005e+114
-2.6967e+114
-2.49678e+114
-2.27694e+114
-2.04422e+114
-1.80575e+114
-1.56837e+114
-1.33835e+114
-1.12107e+114
-9.20924e+113
-7.41086e+113
-5.83527e+113
-4.49005e+113
-3.37169e+113
-2.46716e+113
-1.75615e+113
-1.21348e+113
-8.11641e+112
-5.22806e+112
-3.20376e+112
-1.80342e+112
-8.30953e+111
-1.82148e+111
-2.87121e+111
5.19654e+108
-3.51489e+109
-1.15014e+110
-1.57653e+110
1.53801e+109
3.39206e+108
6.85187e+107
2.03414e+107
6.19033e+107
1.85082e+108
-6.70213e+106
1.82245e+107
2.2887e+106
2.29136e+107
2.91229e+107
2.94703e+107
4.31462e+106
-2.79548e+107
-1.06748e+107
-2.66959e+107
-7.36581e+107
5.65139e+106
8.43736e+106
2.15424e+107
4.18345e+107
6.07502e+107
2.91387e+107
-2.90802e+107
-2.31296e+106
-6.57582e+106
4.25056e+107
4.18078e+107
4.31745e+107
4.56566e+107
4.72025e+107
4.73659e+107
-2.06615e+26
-2.2255e+26
-2.81542e+26
-2.54307e+26
-7.52741e+25
7.43474e+26
1.0299e+27
2.88502e+27
9.15683e+27
1.61377e+28
2.88119e+28
5.17208e+28
8.34655e+28
1.14472e+29
1.42462e+29
1.81524e+29
2.10697e+29
1.95576e+29
1.07024e+29
1.15351e+29
2.18704e+29
2.60074e+29
1.322e+29
2.16624e+29
4.29181e+29
5.40175e+29
-3.24778e+29
-2.75304e+29
1.69261e+29
1.69088e+30
7.3946e+30
1.98704e+31
3.62131e+31
4.06886e+31
3.20488e+31
1.13591e+31
-8.29486e+31
-4.23338e+32
-1.44867e+33
-3.67708e+33
-7.93341e+33
-1.64241e+34
-3.22995e+34
-6.07778e+34
-1.08439e+35
-1.77093e+35
-2.50185e+35
-2.76406e+35
-1.95063e+35
-1.30767e+35
-2.62519e+35
-6.21346e+35
-1.44659e+36
-3.259e+36
-6.99208e+36
-1.38971e+37
-2.44288e+37
-3.76095e+37
-4.732e+37
-3.41564e+37
3.93134e+37
2.23227e+38
5.08497e+38
6.45182e+38
-3.24638e+38
-2.59501e+39
-6.90849e+39
-2.23723e+39
6.41046e+39
2.65161e+40
6.03014e+40
9.46503e+40
3.8132e+40
-1.27468e+41
-2.56178e+41
-3.37289e+41
-3.39679e+41
-4.53923e+41
-9.47253e+41
-2.59373e+42
-2.11991e+42
-6.29513e+42
-1.6289e+43
-3.80561e+43
-7.10778e+43
-8.2454e+43
3.23778e+43
-8.84833e+43
-1.01647e+43
3.09373e+43
1.56516e+43
-2.62834e+40
2.03217e+42
-5.72726e+42
-4.71222e+42
1.27839e+42
1.25449e+43
1.27705e+42
1.52697e+43
4.42805e+43
1.59168e+44
-1.12794e+45
-2.6107e+45
2.53939e+44
-9.02364e+43
-3.16707e+44
-9.49432e+44
-1.31158e+44
-1.16519e+45
-7.93779e+44
-3.74784e+44
-5.1818e+44
6.11447e+44
-2.98459e+45
-3.77606e+46
-1.90586e+47
-8.83686e+47
-3.54118e+48
-2.09791e+48
-1.24891e+48
-1.99863e+48
-1.79969e+48
-2.38508e+46
-8.26097e+46
-8.14538e+46
1.31606e+47
2.85573e+47
9.04478e+47
3.60012e+48
1.43565e+49
4.35392e+49
8.40967e+49
2.55868e+50
7.92063e+50
2.32078e+51
3.01574e+51
3.62935e+50
-3.59063e+51
2.82129e+50
1.33026e+50
4.56081e+50
1.16381e+51
1.71829e+51
2.26226e+51
2.70556e+51
2.89736e+51
2.71038e+51
2.12113e+51
1.21555e+51
3.67612e+50
-6.65589e+48
-1.86771e+50
5.26527e+50
2.59497e+51
9.97146e+51
2.69888e+52
5.08058e+52
9.54572e+52
1.05592e+53
1.40466e+53
1.71117e+53
1.60862e+53
1.08247e+52
-1.88127e+53
1.87515e+54
5.86993e+54
4.2327e+54
-4.19502e+54
-3.08519e+55
-8.38996e+55
-1.11372e+56
-1.55431e+55
2.3303e+56
-2.00483e+57
-2.50063e+57
-3.6422e+57
-5.00753e+57
-7.5749e+57
-2.02745e+58
-3.23406e+58
-5.09158e+58
-8.25347e+58
-1.46107e+59
-2.92449e+59
-6.11238e+59
-1.14217e+60
-1.7458e+60
-1.14809e+60
5.28128e+59
5.56419e+60
1.85875e+61
4.87147e+61
1.53755e+61
7.51377e+60
1.01359e+61
1.88317e+61
3.23179e+61
4.10435e+61
4.89995e+61
3.79086e+61
2.8298e+60
-2.14368e+61
6.03767e+61
8.10234e+62
1.84001e+63
4.42258e+62
-4.43821e+63
-1.84886e+64
-5.41001e+64
-1.39522e+65
-3.39889e+65
-8.19908e+65
-2.12176e+66
-4.68017e+66
-9.57418e+66
-1.06104e+67
1.67729e+67
2.77512e+67
6.89392e+67
7.61283e+67
5.07741e+68
1.86249e+69
1.90242e+69
-2.79986e+68
-5.00902e+68
-2.1493e+69
-1.76405e+69
-2.81155e+69
-2.74564e+69
-3.19203e+69
-2.49547e+69
3.3531e+69
1.41446e+70
-4.62964e+68
-6.33321e+70
-4.94999e+70
1.38456e+71
-8.09198e+70
-4.8108e+71
-7.25239e+71
-8.05922e+71
-3.04153e+71
1.15197e+71
7.08046e+71
2.23467e+68
-4.26253e+71
-1.29611e+72
-5.33956e+72
-1.11929e+73
1.58466e+73
2.86515e+73
3.29331e+73
-1.80589e+72
1.82196e+72
7.46364e+72
1.95824e+73
3.68774e+73
6.19116e+73
9.31565e+73
1.20314e+74
1.24533e+74
1.22027e+74
2.25055e+74
4.18733e+74
6.88511e+74
1.37937e+75
1.90385e+75
2.86189e+75
3.83836e+75
3.47645e+75
1.52244e+75
-4.99963e+75
-1.86522e+76
-4.43359e+76
-9.63588e+76
-2.0097e+77
-3.82685e+77
-6.58058e+77
-9.28795e+77
-1.02061e+78
-7.08392e+77
-2.97818e+77
3.51957e+76
6.44072e+76
-2.71324e+78
-6.62125e+78
-5.2724e+78
-6.38907e+78
-9.30936e+78
-1.07187e+79
-1.08972e+79
-9.78843e+78
-7.33369e+78
-4.262e+78
-4.39561e+78
-2.24682e+79
-9.88334e+79
-2.84845e+80
-7.35204e+80
-1.62029e+81
-2.0096e+81
-2.80027e+77
-4.03498e+81
-2.19511e+81
-7.09477e+81
2.292e+81
2.11155e+81
2.5377e+80
-4.81875e+80
-6.97603e+80
-9.505e+80
-7.69131e+80
2.13353e+80
-8.12601e+80
-5.89727e+80
-5.62506e+80
-3.36762e+80
5.53343e+80
9.0419e+80
7.10504e+81
1.43333e+82
1.54173e+82
5.5215e+81
1.68018e+81
2.59256e+81
9.45591e+81
2.36257e+82
5.67343e+82
1.27424e+83
1.94152e+83
3.63902e+83
6.10295e+83
5.04383e+83
3.43594e+83
1.19161e+83
-5.30509e+82
-1.06056e+83
-5.74787e+82
2.9856e+83
6.0485e+83
-8.12256e+83
-6.06997e+83
-1.01998e+84
1.88493e+83
-3.67693e+83
-1.86447e+84
3.80846e+84
6.03716e+84
-1.65174e+85
-3.86403e+85
-6.16067e+85
-1.20851e+86
-2.3979e+86
-4.90379e+86
-1.04171e+87
-2.27567e+87
-5.02116e+87
-1.10772e+88
-2.43246e+88
-5.29279e+88
-1.13156e+89
-2.39117e+89
-4.93625e+89
-9.94329e+89
-1.96278e+90
-3.79191e+90
-7.20621e+90
-1.35418e+91
-2.50291e+91
-4.55004e+91
-8.13923e+91
-1.43331e+92
-2.48535e+92
-4.24427e+92
-7.13876e+92
-1.18267e+93
-1.92982e+93
-3.1014e+93
-4.90846e+93
-7.64947e+93
-1.17373e+94
-1.77308e+94
-2.637e+94
-3.86145e+94
-5.56805e+94
-7.90603e+94
-1.10494e+95
-1.51875e+95
-2.05193e+95
-2.72663e+95
-3.56643e+95
-4.5854e+95
-5.78158e+95
-7.17608e+95
-8.77733e+95
-1.05585e+96
-1.24903e+96
-1.45068e+96
-1.6563e+96
-1.85851e+96
-2.04903e+96
-2.21884e+96
-2.35875e+96
-2.46023e+96
-2.5167e+96
-2.52583e+96
-2.49406e+96
-2.44329e+96
-2.41684e+96
-2.49235e+96
-3.00082e+96
-4.38835e+96
-7.74481e+96
-1.5182e+97
-3.12922e+97
-6.44739e+97
-1.33025e+98
-2.71282e+98
-5.40625e+98
-1.05347e+99
-2.01522e+99
-3.79352e+99
-7.03138e+99
-1.28314e+100
-2.30722e+100
-4.08952e+100
-7.14779e+100
-1.23225e+101
-2.09572e+101
-3.5166e+101
-5.82234e+101
-9.51199e+101
-1.53335e+102
-2.43889e+102
-3.82741e+102
-5.92583e+102
-9.05089e+102
-1.36363e+103
-2.02643e+103
-2.97007e+103
-4.29321e+103
-6.12033e+103
-8.60525e+103
-1.19346e+104
-1.63314e+104
-2.206e+104
-2.94356e+104
-3.88427e+104
-5.07739e+104
-6.59044e+104
-8.5231e+104
-1.1032e+105
-1.43734e+105
-1.89748e+105
-2.55529e+105
-3.53019e+105
-5.01935e+105
-7.34453e+105
-1.10245e+106
-1.68854e+106
-2.62276e+106
-4.10738e+106
-6.4535e+106
-1.01343e+107
-1.58615e+107
-2.46947e+107
-3.81935e+107
-5.86296e+107
-8.92748e+107
-1.3479e+108
-2.01739e+108
-2.9926e+108
-4.39926e+108
-6.40828e+108
-9.24915e+108
-1.32261e+109
-1.87372e+109
-2.62964e+109
-3.65581e+109
-5.03431e+109
-6.86663e+109
-9.27618e+109
-1.24106e+110
-1.64431e+110
-2.15736e+110
-2.80272e+110
-3.60518e+110
-4.59131e+110
-5.78865e+110
-7.22468e+110
-8.92536e+110
-1.09134e+111
-1.32065e+111
-1.58145e+111
-1.87375e+111
-2.1963e+111
-2.54633e+111
-2.91925e+111
-3.30838e+111
-3.70456e+111
-4.09569e+111
-4.46608e+111
-4.79549e+111
-5.05788e+111
-5.21989e+111
-5.23964e+111
-5.06715e+111
-4.6487e+111
-3.93762e+111
-2.91023e+111
-1.57397e+111
7.95053e+109
2.08903e+111
5.37707e+111
9.6801e+111
1.57078e+112
2.32536e+112
3.25009e+112
4.35974e+112
5.67495e+112
7.21147e+112
8.97709e+112
1.097e+113
1.3178e+113
1.55776e+113
1.81337e+113
2.07991e+113
2.35158e+113
2.62158e+113
2.88242e+113
3.12616e+113
3.34481e+113
3.53076e+113
3.67714e+113
3.77827e+113
3.82993e+113
3.8297e+113
3.77706e+113
3.67349e+113
3.5224e+113
3.32894e+113
3.09977e+113
2.84266e+113
2.56611e+113
2.27889e+113
1.98961e+113
1.70632e+113
1.43614e+113
1.18499e+113
9.57417e+112
7.56451e+112
5.83614e+112
4.38984e+112
3.21358e+112
2.28493e+112
1.57404e+112
1.04696e+112
6.69132e+111
4.08245e+111
2.34288e+111
1.18709e+111
4.14985e+110
2.21189e+108
2.23908e+109
9.46538e+108
6.94267e+108
1.22284e+109
1.79947e+109
-1.62399e+108
2.3431e+107
7.81605e+106
-1.3965e+107
-7.69769e+107
-1.92216e+108
1.70051e+107
-3.06112e+106
-7.22303e+105
-2.08003e+106
-3.58462e+106
-2.75155e+106
-1.45561e+106
1.12385e+106
8.29894e+105
7.87038e+105
-2.37518e+105
-6.45336e+105
-1.13603e+106
-3.98949e+106
-5.85254e+106
-5.54509e+106
-1.83026e+106
6.48521e+105
-4.97117e+105
-2.44111e+106
-6.04394e+106
-5.26294e+106
-5.26738e+106
-5.62095e+106
-6.27117e+106
-6.28056e+106
-3.19643e+26
-1.36278e+26
-1.61369e+25
-1.85805e+26
5.94154e+25
1.57732e+27
3.03958e+27
6.63081e+27
1.29554e+28
2.28456e+28
4.01319e+28
7.53125e+28
1.34952e+29
2.11862e+29
3.04613e+29
4.14516e+29
5.18156e+29
5.40282e+29
2.97826e+29
2.79409e+28
1.1796e+29
4.15621e+29
4.99604e+29
1.29838e+30
2.82396e+30
4.41391e+30
2.94724e+30
4.65295e+30
7.66508e+30
1.33615e+31
2.33746e+31
4.15764e+31
7.3996e+31
1.1708e+32
1.7359e+32
2.46809e+32
2.84907e+32
8.1337e+31
-1.22104e+33
-4.82783e+33
-1.0902e+34
-2.40185e+34
-5.03898e+34
-1.01143e+35
-1.95657e+35
-3.55137e+35
-5.76686e+35
-7.65254e+35
-6.46034e+35
-2.69694e+35
-4.11756e+35
-9.68502e+35
-2.15321e+36
-4.77271e+36
-1.05761e+37
-2.31178e+37
-4.5975e+37
-8.27752e+37
-1.356e+38
-1.96622e+38
-2.44128e+38
-2.27211e+38
-1.32684e+38
-1.82417e+38
-9.43046e+38
-2.74451e+39
-6.58973e+39
-1.69656e+40
-1.2726e+40
-2.19434e+39
-1.42601e+40
8.84601e+39
5.90622e+40
5.33294e+40
-1.24662e+41
-3.27093e+41
-2.39435e+41
-9.19933e+40
-6.33291e+39
3.21182e+41
1.68762e+41
-8.38505e+41
-4.77516e+42
-1.34859e+43
-2.8528e+43
-6.01123e+43
7.76276e+42
-6.16522e+43
-5.71542e+43
2.03907e+43
1.40153e+43
3.14429e+42
2.71444e+42
1.15436e+42
3.92783e+41
-9.53828e+41
-1.2946e+42
-4.79029e+41
4.68363e+41
5.5008e+42
2.75073e+43
1.15324e+44
4.92999e+44
-1.10303e+43
-8.02636e+43
-2.55728e+44
-7.90848e+44
-1.49103e+45
-2.52465e+45
-2.13331e+45
-2.08061e+44
-2.35119e+45
4.87799e+45
2.8925e+46
5.91831e+46
1.57507e+47
2.67411e+47
-4.03902e+47
-8.21122e+47
-1.46919e+48
-2.54616e+48
-3.63611e+48
-3.73408e+46
-1.05595e+47
-8.20837e+46
3.57326e+47
6.53022e+47
3.68447e+47
1.57234e+48
6.47226e+48
2.54576e+49
2.7153e+49
1.33683e+50
3.99031e+50
1.50881e+51
5.6294e+51
4.92149e+51
-1.35876e+52
-3.43871e+49
-2.27623e+50
-4.58328e+49
-1.22688e+50
-1.58237e+50
-1.79552e+50
-1.79225e+50
-1.63737e+50
-1.12862e+50
-2.64354e+49
5.83003e+49
-1.14272e+50
-3.27547e+50
-9.89705e+50
-2.10996e+51
-4.15148e+51
-6.02805e+51
-8.29284e+51
-1.49987e+52
-5.31608e+51
1.86414e+52
4.71671e+52
9.52536e+52
1.89068e+53
3.58051e+53
7.21967e+53
9.15976e+53
-4.10401e+52
-1.23389e+54
-3.28826e+54
-7.38339e+54
-1.77652e+55
-4.03333e+55
-4.51866e+54
1.22581e+56
3.75823e+56
5.49504e+56
1.48668e+57
4.92158e+57
1.75754e+58
-1.07601e+57
-5.00575e+57
-9.3643e+57
-1.6516e+58
-2.82386e+58
-4.91741e+58
-7.68554e+58
-5.81213e+58
1.19448e+59
4.35411e+59
9.02318e+59
2.17991e+60
6.89201e+60
1.88293e+61
1.15961e+61
6.07558e+60
1.30463e+61
2.83443e+61
5.061e+61
8.68875e+61
1.44081e+62
2.46067e+62
4.35868e+62
7.77735e+62
1.33824e+63
2.14886e+63
3.06741e+63
3.83447e+63
3.35599e+63
-1.29724e+62
-8.38527e+63
-2.09806e+64
-3.14066e+64
-1.972e+64
6.84503e+64
-2.32729e+65
-2.40354e+66
-1.90619e+66
2.30734e+66
1.92754e+66
3.04012e+67
1.34694e+68
5.07509e+68
1.86882e+69
2.44684e+69
-1.17144e+68
2.31636e+68
-1.67265e+69
-3.47236e+69
-6.90637e+69
-5.40584e+69
-6.40878e+69
-8.42974e+69
-6.93241e+69
6.44908e+69
2.19891e+70
-4.0845e+70
-1.2817e+71
-1.2745e+71
-7.41545e+71
-4.40831e+71
-1.06796e+72
-1.09064e+72
-1.09203e+72
1.57587e+71
7.6317e+71
8.07555e+71
-8.18624e+70
3.10577e+71
7.49679e+71
1.8005e+72
7.09009e+72
3.01533e+73
6.18011e+73
-2.84659e+72
2.78227e+72
3.47887e+72
7.29624e+72
1.32054e+73
2.27532e+73
3.74137e+73
6.02866e+73
9.82561e+73
1.59787e+74
3.21421e+74
5.98286e+74
9.73611e+74
1.77594e+75
3.13364e+75
5.31791e+75
8.41858e+75
1.19378e+76
1.44467e+76
1.3417e+76
8.3407e+75
1.55247e+75
-1.65754e+76
-7.28513e+76
-1.06441e+77
-1.60764e+77
-2.06322e+77
-2.69629e+77
-5.7135e+77
-6.24536e+77
-4.69449e+77
9.87217e+77
-7.48052e+78
-2.06526e+79
-6.89472e+78
-9.43267e+78
-1.31152e+79
-1.60707e+79
-1.73086e+79
-1.66387e+79
-1.47041e+79
-1.08616e+79
-3.99745e+78
5.4523e+78
-1.76232e+77
-2.92902e+79
-1.59928e+80
-7.03283e+80
-2.26223e+81
-4.25204e+80
-1.16254e+81
-4.24063e+81
-8.47522e+81
8.91678e+80
7.28745e+80
1.13703e+81
2.66374e+80
1.01707e+80
-4.22468e+80
-8.25197e+80
-7.1072e+80
-2.93462e+81
-2.40812e+81
-1.8428e+81
-1.70393e+81
-1.52918e+81
-6.85403e+80
-6.94313e+80
-7.65425e+80
-7.37308e+80
-4.60172e+80
5.01484e+80
2.9068e+81
5.59794e+81
1.27621e+82
3.78818e+82
1.27063e+83
3.72819e+83
7.89853e+83
6.3644e+83
7.69878e+83
6.91681e+83
3.92988e+83
1.06322e+83
8.90168e+82
-7.87405e+82
-5.99718e+82
-5.96793e+82
-1.91569e+83
-1.70849e+83
-9.56731e+83
2.44085e+83
3.85763e+83
2.01776e+84
1.20204e+85
4.96295e+85
-9.04324e+84
-1.06539e+85
-1.2095e+85
-1.91005e+85
-2.23789e+85
-1.79437e+85
7.12742e+84
7.00796e+85
2.14856e+86
5.29392e+86
1.10674e+87
1.77082e+87
5.75103e+87
9.59364e+87
1.54972e+88
3.09329e+88
6.98245e+88
2.08543e+89
5.63238e+89
1.07985e+90
1.99213e+90
3.60058e+90
6.40494e+90
1.12229e+91
1.93743e+91
3.29504e+91
5.52113e+91
9.11487e+91
1.48277e+92
2.3773e+92
3.75795e+92
5.86042e+92
9.02219e+92
1.37167e+93
2.05761e+93
3.03532e+93
4.37467e+93
6.11197e+93
8.25983e+93
1.09557e+94
1.46659e+94
1.97556e+94
2.55206e+94
3.14049e+94
4.21828e+94
5.52808e+94
6.77823e+94
8.03667e+94
8.97789e+94
1.0409e+95
1.18281e+95
1.32044e+95
1.4475e+95
1.55722e+95
1.64363e+95
1.6987e+95
1.70774e+95
1.63684e+95
1.40727e+95
8.84512e+94
1.39689e+94
1.58766e+95
4.40127e+94
8.70015e+94
2.92627e+95
7.869e+95
7.41707e+95
4.52809e+96
8.69122e+96
2.07367e+97
4.05507e+97
8.00022e+97
1.58556e+98
3.0415e+98
5.6121e+98
1.01756e+99
1.82088e+99
3.21341e+99
5.59357e+99
9.6065e+99
1.62802e+100
2.72276e+100
4.49392e+100
7.31994e+100
1.17663e+101
1.86639e+101
2.92118e+101
4.51103e+101
6.87243e+101
1.03281e+102
1.53099e+102
2.23834e+102
3.22747e+102
4.5896e+102
6.43702e+102
8.90546e+102
1.21566e+103
1.63821e+103
2.18105e+103
2.87229e+103
3.74832e+103
4.85977e+103
6.28242e+103
8.13666e+103
1.06207e+104
1.4066e+104
1.90279e+104
2.64307e+104
3.77967e+104
5.56038e+104
8.38364e+104
1.28825e+105
2.00506e+105
3.14304e+105
4.93886e+105
7.7517e+105
1.21208e+106
1.88471e+106
2.91073e+106
4.46114e+106
6.78175e+106
1.02219e+107
1.52727e+107
2.26162e+107
3.31885e+107
4.82594e+107
6.95294e+107
9.92474e+107
1.40348e+108
1.96609e+108
2.72826e+108
3.74996e+108
5.10507e+108
6.8831e+108
9.19069e+108
1.21525e+109
1.59115e+109
2.06279e+109
2.6477e+109
3.36451e+109
4.23235e+109
5.27007e+109
6.49515e+109
7.9225e+109
9.56296e+109
1.14217e+110
1.34965e+110
1.57759e+110
1.82374e+110
2.08454e+110
2.35492e+110
2.62808e+110
2.89508e+110
3.14447e+110
3.36153e+110
3.52737e+110
3.61773e+110
3.60192e+110
3.44277e+110
3.10006e+110
2.54177e+110
1.766e+110
8.16121e+109
-2.82801e+109
-1.78993e+110
-4.14671e+110
-7.59108e+110
-1.21096e+111
-1.76377e+111
-2.43404e+111
-3.23544e+111
-4.18321e+111
-5.28679e+111
-6.54942e+111
-7.96756e+111
-9.53037e+111
-1.12192e+112
-1.30071e+112
-1.4859e+112
-1.67324e+112
-1.85786e+112
-2.0344e+112
-2.19734e+112
-2.34118e+112
-2.46078e+112
-2.55161e+112
-2.61005e+112
-2.63358e+112
-2.62095e+112
-2.57227e+112
-2.48905e+112
-2.37409e+112
-2.23135e+112
-2.06576e+112
-1.88293e+112
-1.68885e+112
-1.48961e+112
-1.29107e+112
-1.0986e+112
-9.16859e+111
-7.49609e+111
-5.99618e+111
-4.68596e+111
-3.57211e+111
-2.65161e+111
-1.91299e+111
-1.33836e+111
-9.06134e+110
-5.95042e+110
-3.85471e+110
-2.47901e+110
-1.42446e+110
-5.1148e+109
8.53385e+108
3.2711e+109
3.44788e+109
1.33647e+109
5.65778e+108
1.40782e+108
9.05228e+107
4.09304e+107
6.99797e+106
2.94474e+106
-5.37933e+106
-1.43944e+106
1.7429e+107
-2.20018e+107
-3.57159e+106
-1.78788e+106
-2.08864e+106
9.32039e+104
-9.86945e+105
-7.40708e+105
-5.84844e+105
3.48657e+103
1.65156e+105
1.9426e+104
6.1213e+104
7.24193e+104
1.08171e+105
1.25702e+105
-1.25626e+105
-2.73743e+105
3.86121e+105
3.22668e+105
2.44087e+105
2.48083e+105
2.99517e+105
4.07138e+105
4.39377e+105
4.86579e+105
4.36946e+105
2.19541e+25
2.10425e+25
6.48051e+25
2.62229e+26
7.79809e+26
1.28266e+27
2.96572e+27
7.02023e+27
1.5652e+28
2.97766e+28
5.18257e+28
9.5734e+28
1.81577e+29
3.27215e+29
5.50188e+29
8.29269e+29
1.15153e+30
1.43807e+30
1.08759e+30
5.30187e+27
-2.3764e+29
3.88389e+28
-2.1918e+28
5.06152e+28
2.60509e+29
1.29087e+30
1.95732e+30
2.6848e+30
4.16512e+30
6.7856e+30
1.18001e+31
2.20463e+31
4.1378e+31
7.60001e+31
1.30912e+32
2.40411e+32
3.83371e+32
4.76062e+32
-1.22888e+33
-7.92019e+33
-1.66476e+34
-3.54341e+34
-7.44271e+34
-1.50241e+35
-2.97439e+35
-5.70463e+35
-1.01708e+36
-1.57616e+36
-1.54494e+36
-8.50319e+35
-1.34363e+36
-2.66725e+36
-4.80011e+36
-8.52987e+36
-1.61606e+37
-3.32662e+37
-6.81104e+37
-1.28857e+38
-2.21177e+38
-3.39235e+38
-4.66832e+38
-5.28825e+38
-4.20941e+38
-2.96985e+38
-8.55782e+38
-2.52686e+39
-5.14033e+39
-8.26776e+39
-1.40552e+40
-2.38682e+40
-3.75069e+40
-4.40788e+40
-8.93276e+39
-4.04178e+40
-3.71532e+41
-8.82495e+41
-4.06048e+41
-1.82251e+41
-4.9838e+41
-1.05405e+41
5.12035e+40
3.26508e+40
-1.26423e+42
-4.77307e+42
-1.45737e+43
-5.47746e+43
-7.29543e+43
-1.42244e+44
-2.84208e+44
2.33947e+43
1.17843e+43
1.21315e+43
2.93576e+42
1.38932e+42
3.68976e+41
-3.97227e+41
-8.73403e+41
-6.93705e+41
2.46098e+41
8.00058e+41
1.21531e+42
1.24348e+42
1.36672e+42
-1.60707e+43
-6.38349e+43
-1.38634e+44
-5.00294e+44
-2.35862e+45
-5.40092e+45
-1.14419e+46
1.0104e+45
-1.43005e+46
-1.51361e+46
5.11206e+46
7.49094e+46
3.54074e+47
1.49052e+48
-5.37376e+47
-1.21521e+48
-2.45371e+48
-4.5937e+48
-7.58604e+48
-3.86158e+46
-2.39112e+47
-2.77872e+47
5.65976e+47
2.08356e+48
-2.20533e+47
-4.42449e+47
-1.15017e+48
-1.46946e+48
-8.47279e+48
-2.77618e+49
-3.62055e+49
-2.22922e+49
2.46685e+47
1.41948e+49
3.43994e+49
-1.82349e+49
-4.31568e+49
1.57353e+49
-6.07569e+49
-7.75238e+49
-1.77216e+49
6.31442e+49
9.84099e+49
1.716e+50
2.75748e+50
4.56838e+50
2.06609e+50
-1.66839e+50
-8.37216e+50
-2.36119e+51
-5.48426e+51
-9.42753e+51
-9.13861e+51
-1.14147e+52
-5.39202e+51
2.45531e+52
5.56079e+52
8.07394e+52
7.04718e+52
-1.47107e+53
2.30907e+53
1.78912e+54
2.44942e+54
3.04034e+54
3.34937e+54
1.76089e+54
-7.52386e+54
-2.95252e+55
-7.52493e+55
-5.92539e+55
3.93371e+55
1.65232e+55
5.069e+55
2.41875e+56
1.08207e+57
4.31176e+57
-6.03814e+56
-4.1673e+55
1.21042e+57
4.04812e+57
1.29091e+58
3.21027e+58
6.80331e+58
1.25682e+59
2.13641e+59
4.2488e+59
8.90301e+59
2.28376e+60
5.12461e+60
5.45536e+60
5.63303e+60
1.13922e+61
2.25861e+61
3.8615e+61
6.50012e+61
1.12145e+62
1.99777e+62
3.61876e+62
6.5633e+62
1.17265e+63
2.02312e+63
3.20614e+63
4.22008e+63
3.44237e+63
-2.70299e+63
-1.95544e+64
-5.12043e+64
-9.33243e+64
-1.21562e+65
-8.40253e+64
7.7611e+64
3.77827e+65
3.65506e+65
-3.1418e+66
-6.80136e+66
-9.72294e+66
-1.73042e+67
-4.31021e+67
-8.25107e+67
3.04423e+67
8.15892e+68
-1.03433e+69
-1.73769e+69
-3.07001e+69
-4.84032e+69
-8.43857e+69
-1.43762e+70
-2.18284e+70
-3.34378e+70
-5.378e+70
-7.04727e+70
-1.20302e+71
-1.35188e+71
-9.63317e+70
-1.35857e+71
-1.62843e+71
-8.87443e+71
-2.41628e+72
-3.66807e+72
-5.77313e+71
1.02399e+72
1.48625e+72
-1.71775e+71
1.18763e+71
1.41375e+71
-3.68139e+70
-5.6932e+71
-1.84324e+72
-3.71224e+72
1.94165e+72
3.41386e+72
5.41008e+72
1.00361e+73
1.6239e+73
2.5512e+73
4.04782e+73
6.57526e+73
1.05159e+74
1.64929e+74
2.89664e+74
5.38445e+74
1.03568e+75
2.04792e+75
3.99296e+75
7.50119e+75
1.31979e+76
2.10051e+76
2.89378e+76
3.0923e+76
2.29418e+76
1.43084e+76
-2.21789e+75
-1.30468e+77
-2.1841e+77
-3.53616e+77
-4.40607e+77
-4.99554e+77
-8.0441e+77
-1.22724e+78
-1.92567e+78
-3.00629e+78
-4.07403e+78
-4.30867e+78
-6.04926e+78
-1.04667e+79
-1.401e+79
-1.67699e+79
-1.8021e+79
-1.64915e+79
-1.26836e+79
-6.52948e+78
2.12929e+78
1.79182e+79
4.8555e+79
8.2433e+79
3.09899e+79
-6.15009e+80
-1.2095e+81
-8.82485e+79
-4.50538e+81
-4.19967e+81
-1.9762e+81
-5.28054e+80
1.1924e+81
2.57375e+80
1.21391e+81
1.49825e+81
1.12184e+81
7.5561e+80
1.12894e+81
-3.21655e+81
-2.66989e+81
-1.72194e+81
-1.83602e+81
-1.84576e+81
-4.1565e+80
5.63717e+80
9.94849e+80
-4.32902e+80
-8.60073e+80
3.7557e+79
5.26947e+81
7.85658e+81
2.39244e+81
1.22361e+81
2.14291e+82
9.67992e+82
2.91865e+83
4.91662e+83
7.81208e+83
8.86254e+83
6.17264e+83
1.40417e+83
-2.83039e+83
-2.32306e+83
-2.27227e+83
2.98322e+82
3.25478e+82
7.17787e+83
1.19128e+84
-2.4799e+83
-1.8821e+83
-1.46799e+83
-2.59621e+83
-5.04069e+84
-9.61841e+84
-1.64885e+85
-1.13151e+85
-1.98292e+85
-3.16682e+85
-5.20371e+85
-8.51644e+85
-1.36591e+86
-2.37086e+86
-4.35484e+86
-8.49221e+86
-1.79515e+87
-4.21945e+87
-1.07466e+88
-2.80243e+88
-7.81365e+88
-2.11464e+89
-3.21447e+89
-1.79949e+88
1.91918e+88
4.74633e+88
6.30691e+88
6.14215e+88
3.66185e+88
-3.7956e+88
-2.14428e+89
-5.82762e+89
-1.29272e+90
-2.57594e+90
-4.73693e+90
-8.00658e+90
-1.19698e+91
-1.39604e+91
-5.62932e+90
3.17993e+91
1.26586e+92
2.87307e+92
4.13002e+92
1.86354e+92
-7.32214e+92
-1.82875e+93
-1.68351e+93
-1.06223e+93
-5.35164e+93
-4.03459e+93
1.3892e+93
6.27611e+93
9.66395e+93
-1.80659e+93
-1.29978e+93
-1.21596e+93
-1.10429e+93
-8.4231e+92
-6.86291e+92
-7.02851e+92
-9.00443e+92
-1.8628e+93
-7.39701e+93
-3.37932e+94
-1.4417e+95
-5.71862e+95
9.37884e+94
-3.47088e+95
-4.64229e+95
-4.65318e+95
-1.27108e+95
2.65541e+95
-5.73798e+95
-3.81111e+96
-2.76456e+96
-3.53434e+96
-5.7124e+96
-2.95977e+96
7.7987e+96
1.33633e+97
2.06448e+97
2.29003e+97
2.31818e+97
1.40798e+97
-1.59946e+97
-8.73566e+97
-2.34965e+98
-5.16944e+98
-1.02661e+99
-1.90918e+99
-3.38404e+99
-5.77306e+99
-9.53483e+99
-1.53033e+100
-2.39274e+100
-3.65062e+100
-5.44092e+100
-7.92716e+100
-1.12947e+101
-1.57403e+101
-2.14544e+101
-2.85953e+101
-3.72563e+101
-4.74285e+101
-5.89672e+101
-7.15728e+101
-8.48079e+101
-9.81777e+101
-1.11318e+102
-1.24358e+102
-1.38582e+102
-1.57622e+102
-1.89641e+102
-2.51305e+102
-3.74789e+102
-6.19523e+102
-1.09085e+103
-1.96871e+103
-3.55095e+103
-6.31847e+103
-1.10318e+104
-1.88726e+104
-3.16458e+104
-5.20657e+104
-8.41493e+104
-1.3375e+105
-2.09262e+105
-3.22539e+105
-4.90053e+105
-7.34321e+105
-1.08562e+106
-1.58396e+106
-2.28131e+106
-3.24389e+106
-4.55446e+106
-6.31428e+106
-8.64451e+106
-1.16865e+107
-1.56003e+107
-2.05618e+107
-2.67559e+107
-3.43676e+107
-4.35686e+107
-5.45002e+107
-6.72525e+107
-8.18401e+107
-9.81759e+107
-1.16044e+108
-1.35074e+108
-1.54724e+108
-1.74261e+108
-1.92766e+108
-2.0914e+108
-2.22126e+108
-2.3034e+108
-2.32293e+108
-2.26375e+108
-2.10757e+108
-1.83122e+108
-1.40175e+108
-7.70136e+107
1.29375e+107
1.35141e+108
2.83226e+108
4.14325e+108
4.20919e+108
1.80153e+108
-1.25911e+108
5.21187e+108
3.0508e+109
3.65169e+109
2.82826e+109
4.3945e+109
5.56397e+109
6.79296e+109