/*--------------------------------*- C++ -*----------------------------------*\
  =========                 |
  \\      /  F ield         | OpenFOAM: The Open Source CFD Toolbox
   \\    /   O peration     | Website:  https://openfoam.org
    \\  /    A nd           | Version:  9
     \\/     M anipulation  |
\*---------------------------------------------------------------------------*/
FoamFile
{
    format      ascii;
    class       volScalarField;
    location    "1";
    object      p;
}
// * * * * * * * * * * * * * * * * * * * * * * * * * * * * * * * * * * * * * //

dimensions      [1 -1 -2 0 0 0 0];

internalField   nonuniform List<scalar> 
120000
(
-2.5315e+28
-1.79162e+29
-2.84034e+29
-3.56858e+29
-8.77544e+28
3.28045e+29
-1.27914e+29
5.22963e+29
7.77458e+29
1.45356e+30
2.35904e+30
3.64422e+30
6.71352e+30
7.83035e+30
1.08795e+31
1.66654e+31
2.50975e+31
3.86315e+31
6.14726e+31
1.0406e+32
1.80016e+32
3.14253e+32
5.41509e+32
8.54424e+32
1.40657e+33
2.31413e+33
3.81479e+33
6.56128e+33
1.07628e+34
1.68672e+34
2.58507e+34
4.15147e+34
7.03037e+34
1.15269e+35
1.82858e+35
2.89919e+35
4.72114e+35
7.96056e+35
1.35649e+36
2.26503e+36
3.739e+36
6.14042e+36
1.01026e+37
1.66559e+37
2.77048e+37
4.56316e+37
7.56037e+37
1.24084e+38
1.98484e+38
3.05567e+38
4.63253e+38
6.94651e+38
1.02883e+39
1.49542e+39
2.1711e+39
3.16828e+39
4.68066e+39
7.02725e+39
1.06893e+40
1.63302e+40
2.38346e+40
3.15705e+40
3.33915e+40
1.60998e+40
-5.43188e+40
2.77154e+42
5.20076e+42
-3.68278e+42
-7.47393e+42
-1.43303e+43
-3.18789e+43
-4.2143e+43
-4.49069e+43
-1.07536e+43
9.04658e+42
5.03537e+43
3.97373e+43
1.15009e+44
5.40329e+44
1.53167e+45
2.7792e+45
4.66608e+45
8.19484e+45
1.81002e+46
6.21891e+46
2.59714e+47
3.57617e+47
-1.70139e+46
-6.24737e+45
-6.12446e+45
-3.97691e+46
-1.51025e+46
2.96252e+45
1.76269e+45
2.00134e+45
-3.30136e+44
-1.99675e+45
1.5639e+45
4.66931e+45
6.87305e+45
1.072e+46
-1.29984e+46
-5.31631e+46
-1.97254e+47
-2.4034e+47
-1.13344e+47
9.77402e+45
2.88869e+46
4.01317e+46
3.10829e+46
1.36808e+46
-9.00055e+46
-4.92201e+47
-1.72223e+48
-5.00474e+48
-1.24967e+49
-2.96249e+49
-5.19509e+49
-4.42476e+49
-2.69714e+49
-3.04456e+49
-1.39207e+51
7.22939e+48
6.19103e+49
4.01021e+49
5.97637e+49
3.25367e+48
-1.70551e+50
2.20138e+50
6.19207e+50
-2.26641e+50
3.98987e+51
8.20311e+51
1.46113e+52
1.49029e+52
-1.97001e+52
-1.07464e+53
-2.24319e+53
4.77549e+53
1.69701e+52
6.91555e+51
-9.82324e+53
-1.64334e+54
-2.37095e+54
-3.04193e+54
-3.49116e+54
-3.50113e+54
-2.95519e+54
-1.75658e+54
-5.5686e+53
-2.93004e+53
-2.39077e+53
6.72707e+53
3.29358e+54
6.09975e+54
1.48122e+55
2.64781e+55
5.91058e+55
1.20447e+56
2.42089e+56
4.87288e+56
9.82047e+56
2.01108e+57
3.77651e+57
6.64367e+57
1.09603e+58
2.31266e+58
4.76306e+58
9.6915e+58
1.97436e+59
4.10821e+59
7.07455e+59
1.1406e+60
1.6551e+60
2.5491e+60
3.74657e+60
5.37066e+60
7.4393e+60
9.86355e+60
1.28407e+61
1.63527e+61
2.10482e+61
2.95172e+61
4.94369e+61
9.63556e+61
1.83085e+62
3.84592e+62
6.70501e+62
8.78918e+62
9.49579e+62
-8.95508e+62
-6.83655e+63
4.67031e+61
-4.16787e+63
-2.02706e+63
-3.37224e+63
-3.25282e+63
-6.15345e+63
-7.30567e+63
-6.32265e+63
1.52247e+63
2.90968e+64
1.09852e+65
3.23981e+65
4.84668e+65
-6.17647e+65
5.96943e+66
1.36948e+67
3.28111e+67
7.79179e+67
1.83279e+68
4.276e+68
9.85209e+68
2.21071e+69
5.18655e+69
7.23065e+69
8.92762e+68
1.0924e+70
-2.58919e+68
-1.97999e+69
-2.11948e+69
-2.19387e+69
-3.40665e+70
5.28565e+69
1.24046e+70
2.50773e+70
1.11109e+71
2.8555e+71
6.23756e+71
1.38376e+72
2.65176e+72
5.30647e+72
9.08714e+72
1.56398e+73
2.96301e+73
5.07391e+73
9.27224e+73
5.97671e+74
-2.90393e+74
-4.84892e+74
4.41638e+74
8.66032e+74
8.34671e+74
1.25667e+75
7.59907e+74
3.20115e+75
-7.09321e+74
-1.54971e+75
-2.61095e+75
-2.82443e+75
-2.46518e+75
-1.85258e+74
4.56566e+74
-3.16361e+74
-2.18633e+75
-7.8955e+75
-1.17577e+76
-1.83807e+76
-2.53368e+76
-2.7524e+76
-1.52865e+76
2.57785e+75
1.69909e+70
-1.29147e+77
7.23386e+77
4.88011e+77
4.30721e+77
5.91951e+77
1.02062e+78
1.80526e+78
3.46679e+78
6.89849e+78
1.35717e+79
2.65295e+79
5.15475e+79
9.64649e+79
1.74769e+80
2.98618e+80
5.007e+80
7.02375e+80
1.6329e+79
-4.89095e+79
6.64325e+80
-1.13798e+80
-3.43893e+80
-5.26188e+80
-2.10082e+81
-1.83481e+81
-2.19673e+81
-2.9262e+81
-3.55662e+81
-4.48598e+81
-7.57831e+81
-1.42255e+82
-2.28414e+82
-2.88753e+82
-2.56628e+82
-3.97852e+82
3.40151e+81
1.90984e+83
-1.55272e+84
1.10472e+84
3.2057e+84
3.51042e+84
2.79724e+84
7.25695e+83
-7.49224e+83
1.72439e+83
4.26236e+83
6.601e+83
5.47343e+83
1.35388e+84
8.0267e+82
-1.48011e+84
-2.0748e+84
-1.66425e+84
-9.13338e+83
-2.77184e+84
-7.0129e+84
-1.44549e+85
-2.19545e+85
-3.37825e+85
-3.28636e+85
-1.96721e+85
-1.19996e+84
-4.53103e+84
-7.4306e+84
-2.7438e+85
-9.64824e+84
1.91773e+85
2.93059e+85
7.80989e+85
7.39663e+85
7.76488e+85
9.67943e+85
1.36034e+86
8.66422e+85
9.61109e+85
1.22315e+86
7.46536e+85
-9.14866e+85
-6.65221e+86
-1.90466e+87
-4.0005e+87
-2.6612e+87
1.17367e+88
-7.84595e+85
2.49587e+87
2.67583e+87
-5.45443e+87
1.10701e+88
3.91143e+88
6.32336e+88
1.16024e+89
2.6227e+89
6.26244e+89
1.5494e+90
3.97975e+90
1.02749e+91
2.56017e+91
6.08945e+91
1.3816e+92
3.02167e+92
6.39869e+92
1.31647e+93
2.64562e+93
5.19761e+93
1.00063e+94
1.89039e+94
3.50786e+94
6.39837e+94
1.1478e+95
2.02585e+95
3.51897e+95
6.01698e+95
1.01287e+96
1.67867e+96
2.73924e+96
4.40089e+96
6.96116e+96
1.08399e+97
1.66165e+97
2.50716e+97
3.72322e+97
5.44137e+97
7.82556e+97
1.10741e+98
1.54188e+98
2.11202e+98
2.84582e+98
3.77228e+98
4.91242e+98
6.30302e+98
7.94737e+98
9.8595e+98
1.20118e+99
1.44157e+99
1.6994e+99
1.96981e+99
2.24462e+99
2.51408e+99
2.76707e+99
2.99145e+99
3.1745e+99
3.30343e+99
3.36583e+99
3.3511e+99
3.2554e+99
3.08591e+99
2.90716e+99
2.81397e+99
3.07857e+99
4.44194e+99
8.34256e+99
1.79056e+100
3.94504e+100
8.5195e+100
1.79158e+101
3.66778e+101
7.36225e+101
1.44641e+102
2.78622e+102
5.27196e+102
9.80945e+102
1.79634e+103
3.23959e+103
5.75646e+103
1.0082e+104
1.74094e+104
2.96453e+104
4.97876e+104
8.24749e+104
1.34765e+105
2.17218e+105
3.45358e+105
5.4161e+105
8.37771e+105
1.27809e+106
1.92293e+106
2.85304e+106
4.1742e+106
6.02207e+106
8.56702e+106
1.20186e+107
1.66299e+107
2.2702e+107
3.05905e+107
4.07191e+107
5.36056e+107
6.9918e+107
9.05806e+107
1.16972e+108
1.5128e+108
1.97103e+108
2.60473e+108
3.51512e+108
4.87113e+108
6.95173e+108
1.02122e+109
1.53861e+109
2.36415e+109
3.68148e+109
5.77612e+109
9.08683e+109
1.42805e+110
2.23595e+110
3.48144e+110
5.38374e+110
8.26175e+110
1.25742e+111
1.89737e+111
2.83779e+111
4.20625e+111
6.17796e+111
8.99068e+111
1.29631e+112
1.85167e+112
2.62023e+112
3.67292e+112
5.09984e+112
7.01381e+112
9.55395e+112
1.2889e+113
1.72204e+113
2.27839e+113
2.98505e+113
3.87249e+113
4.97413e+113
6.32566e+113
7.96396e+113
9.92561e+113
1.2245e+114
1.4952e+114
1.80692e+114
2.16089e+114
2.55701e+114
2.99346e+114
3.46634e+114
3.96934e+114
4.49325e+114
5.02548e+114
5.54931e+114
6.04288e+114
6.47771e+114
6.81675e+114
7.01232e+114
7.00517e+114
6.72735e+114
6.11209e+114
5.10888e+114
3.68123e+114
1.29702e+114
-2.84427e+113
-3.52052e+114
-7.8293e+114
-1.39848e+115
-2.20652e+115
-3.23072e+115
-4.48792e+115
-6.00156e+115
-7.79465e+115
-9.88498e+115
-1.2281e+116
-1.49794e+116
-1.79631e+116
-2.12001e+116
-2.46426e+116
-2.82275e+116
-3.18767e+116
-3.54997e+116
-3.89967e+116
-4.22625e+116
-4.51916e+116
-4.76832e+116
-4.96469e+116
-5.10076e+116
-5.17101e+116
-5.17223e+116
-5.10373e+116
-4.96745e+116
-4.76785e+116
-4.5117e+116
-4.20773e+116
-3.86615e+116
-3.49815e+116
-3.11526e+116
-2.72885e+116
-2.34958e+116
-1.9869e+116
-1.64872e+116
-1.34114e+116
-1.0683e+116
-8.32342e+115
-6.33538e+115
-4.70471e+115
-3.40374e+115
-2.39518e+115
-1.63626e+115
-1.08235e+115
-6.89488e+114
-4.16309e+114
-2.33207e+114
-1.48441e+114
-1.08105e+114
2.09158e+111
1.20581e+111
-1.16344e+112
-2.93854e+112
3.9216e+110
2.91768e+110
3.65271e+110
3.52044e+110
6.16648e+110
1.21583e+111
5.74804e+110
4.41422e+110
2.06673e+110
1.59666e+110
7.94646e+109
-1.54288e+110
-1.24451e+110
-7.70177e+107
-9.5516e+108
-1.4588e+109
-3.19231e+109
7.16641e+108
4.61165e+108
1.63831e+109
3.03782e+109
5.1379e+109
5.62014e+109
-4.83361e+109
-2.81872e+108
-1.10002e+109
4.07902e+109
5.21606e+109
5.82673e+109
6.16186e+109
5.46104e+109
8.22845e+109
-5.92602e+28
-2.3104e+28
2.86529e+28
-8.05418e+28
6.51274e+28
8.43562e+27
2.35254e+28
-2.33855e+29
8.79836e+29
1.39556e+30
2.19948e+30
2.96762e+30
4.01712e+30
5.75208e+30
7.08473e+30
9.67471e+30
1.18659e+31
1.30087e+31
1.18594e+31
1.46284e+31
2.30089e+31
3.53975e+31
2.07448e+31
-2.28938e+31
1.06377e+31
1.19923e+32
3.72642e+32
7.8351e+32
1.50965e+33
2.71762e+33
4.98912e+33
9.229e+33
1.47948e+34
2.052e+34
2.94704e+34
4.86486e+34
7.65599e+34
1.1484e+35
1.72826e+35
2.5323e+35
3.93287e+35
5.58649e+35
8.35933e+35
1.33362e+36
2.66087e+36
4.66536e+36
1.06037e+37
2.48543e+37
5.26526e+37
9.34497e+37
1.58072e+38
2.70722e+38
4.7179e+38
8.15774e+38
1.45266e+39
2.66767e+39
5.05655e+39
9.77539e+39
1.89811e+40
3.68432e+40
6.97897e+40
1.28392e+41
2.23265e+41
2.47156e+41
-5.67884e+40
-4.83053e+41
-1.0326e+42
-6.90875e+41
-4.41463e+41
3.80435e+41
-1.39208e+43
-4.08554e+42
-1.65229e+43
-3.54584e+43
-4.3484e+43
-7.91642e+43
-1.2137e+44
-2.11276e+44
-3.4179e+44
-7.86574e+45
-1.96021e+45
4.72754e+45
1.60407e+46
5.12286e+46
1.5366e+47
3.74021e+47
8.09428e+47
6.61296e+46
-8.7498e+45
-1.43953e+45
1.09057e+46
-4.84861e+45
-1.0416e+45
-7.91247e+44
-4.30762e+44
1.27695e+45
6.79991e+45
1.00674e+45
-2.59945e+44
-1.19744e+45
-1.55498e+45
-4.75407e+46
-1.18178e+47
-1.6232e+46
-1.22051e+46
-2.73156e+46
1.18606e+47
2.12215e+43
-2.72426e+46
-4.80432e+46
-4.49803e+46
-9.29522e+46
-2.25819e+47
-6.51606e+47
-2.43623e+48
-8.58157e+48
-3.33615e+49
-1.09679e+50
-9.40958e+49
-4.35224e+49
7.46244e+49
-1.25004e+51
-6.77763e+48
5.20728e+49
-2.21668e+49
1.0499e+49
-9.76226e+48
2.7747e+49
9.16941e+49
6.04569e+50
5.04805e+51
5.64264e+51
9.5603e+51
2.70625e+52
7.52632e+52
1.00589e+53
2.34894e+52
-8.06921e+52
6.23186e+53
-5.96338e+52
6.70609e+52
1.19364e+53
1.98932e+53
2.93595e+53
3.86031e+53
4.56041e+53
4.7556e+53
4.03246e+53
2.76122e+53
1.60786e+53
2.55229e+53
7.32181e+53
1.87856e+54
4.05417e+54
7.80736e+54
1.75816e+55
3.32848e+55
6.84792e+55
1.22441e+56
2.15285e+56
3.8572e+56
6.78579e+56
1.17435e+57
2.00241e+57
3.43793e+57
5.89659e+57
8.8327e+57
1.27985e+58
1.59815e+58
2.0909e+58
5.35028e+57
6.4858e+58
1.21441e+59
-1.76829e+59
-2.39943e+59
-4.21088e+59
-6.93044e+59
-1.12876e+60
-2.16885e+60
-3.38239e+60
-4.92084e+60
-6.7434e+60
-8.82413e+60
-1.1265e+61
-1.66648e+61
-4.52961e+61
-5.68497e+61
-6.12405e+62
7.12393e+61
1.45772e+62
-5.51595e+63
7.95601e+63
1.55168e+64
8.51961e+63
3.4945e+63
-3.43207e+63
7.44411e+62
-2.1553e+64
-4.23639e+64
-8.11157e+64
-1.4454e+65
-2.33275e+65
-2.51036e+65
1.85341e+63
3.26079e+65
1.44423e+65
3.65966e+64
-4.05866e+65
-1.58704e+66
-4.45288e+66
-1.12275e+67
-2.75226e+67
-7.18145e+67
-1.58183e+68
-3.28216e+68
-3.54073e+68
7.92617e+68
6.1555e+68
2.30607e+69
3.05931e+69
2.07855e+70
7.78489e+70
9.07265e+70
-8.61088e+69
-1.44954e+70
-7.54488e+70
-1.31653e+70
2.75062e+70
1.10987e+71
3.59028e+71
7.92585e+71
1.61548e+72
2.98023e+72
4.03596e+72
5.44248e+72
-8.63214e+71
-6.42566e+72
-9.49959e+73
2.18866e+72
4.49243e+73
3.20625e+72
4.42817e+73
-6.92827e+73
-2.18905e+73
-4.0958e+73
-5.59095e+74
-1.15341e+74
-3.23345e+74
-8.37562e+74
4.73159e+74
9.99661e+74
1.19459e+75
5.82868e+74
1.55516e+75
5.44062e+75
1.71466e+76
5.57203e+76
1.88283e+77
6.61341e+77
2.38488e+78
8.81391e+78
3.2596e+79
-1.45334e+81
-1.82926e+80
-3.55722e+79
-1.46845e+79
-4.26967e+78
-1.10173e+78
-2.70514e+77
-3.38696e+77
-6.8869e+77
-1.39519e+78
-2.88209e+78
-5.4966e+78
-9.49418e+78
-1.6153e+79
-2.84476e+79
-4.47213e+79
-5.45664e+79
-6.83775e+79
-1.17072e+79
-3.68698e+79
-9.31021e+78
9.05114e+80
-1.35693e+80
-4.14519e+80
-5.76793e+80
-6.71125e+80
-1.01412e+81
-1.18479e+81
-1.53668e+81
-1.89064e+81
-2.34953e+81
-2.93435e+81
-3.90537e+81
-5.15948e+81
-1.04567e+82
-1.42562e+82
-3.25236e+82
-3.13507e+82
-6.70876e+83
-8.18853e+83
-3.8004e+83
4.25503e+82
-8.63687e+82
3.92099e+83
3.30984e+83
2.57625e+83
-3.5908e+82
-1.34779e+83
-8.261e+82
-4.81731e+82
4.76506e+83
-2.57953e+83
-3.9851e+83
-2.98015e+83
-3.12405e+83
-4.05726e+83
1.38834e+84
6.95052e+83
2.69682e+84
1.09808e+84
4.14834e+84
2.40439e+84
1.20877e+84
2.09315e+84
3.26812e+84
1.12376e+85
1.34451e+85
1.44093e+85
9.19572e+84
4.21316e+85
2.98234e+85
3.29597e+85
2.93468e+85
3.44639e+85
-1.01505e+84
-2.8782e+85
3.64213e+85
-5.59198e+83
-2.62065e+86
-4.42787e+84
3.33411e+86
-4.79577e+86
-3.36928e+86
-2.27863e+87
-2.26013e+87
-3.4992e+87
-9.29458e+87
-1.52132e+88
-2.64734e+88
-4.76042e+88
-8.71145e+88
-1.57038e+89
-2.95599e+89
-5.48559e+89
-1.01955e+90
-1.89453e+90
-3.52834e+90
-6.58412e+90
-1.23078e+91
-2.35154e+91
-4.49574e+91
-8.54612e+91
-1.64925e+92
-3.13724e+92
-5.96496e+92
-1.12797e+93
-2.10752e+93
-3.88542e+93
-7.06457e+93
-1.26627e+94
-2.23679e+94
-3.89316e+94
-6.67582e+94
-1.12768e+95
-1.87631e+95
-3.07478e+95
-4.96209e+95
-7.88505e+95
-1.23362e+96
-1.89999e+96
-2.88052e+96
-4.29842e+96
-6.31297e+96
-9.12403e+96
-1.29739e+97
-1.81448e+97
-2.49561e+97
-3.376e+97
-4.48924e+97
-5.89969e+97
-7.56684e+97
-9.56128e+97
-1.18809e+98
-1.45083e+98
-1.74696e+98
-2.06506e+98
-2.39894e+98
-2.73901e+98
-3.07328e+98
-3.38802e+98
-3.66842e+98
-3.89931e+98
-4.06574e+98
-4.15481e+98
-4.15822e+98
-4.07396e+98
-3.96073e+98
-3.87466e+98
-4.57014e+98
-6.84423e+98
-1.08276e+99
-1.88162e+99
-3.18082e+99
-6.14864e+99
-1.26313e+100
-2.40996e+100
-4.58668e+100
-8.76722e+100
-1.67132e+101
-3.16012e+101
-5.90925e+101
-1.09179e+102
-1.99076e+102
-3.58314e+102
-6.36478e+102
-1.1157e+103
-1.92991e+103
-3.2942e+103
-5.54851e+103
-9.22152e+103
-1.5122e+104
-2.44666e+104
-3.90537e+104
-6.14952e+104
-9.55152e+104
-1.46324e+105
-2.21068e+105
-3.29357e+105
-4.83841e+105
-7.00822e+105
-1.00086e+106
-1.40931e+106
-1.95687e+106
-2.68002e+106
-3.62171e+106
-4.8326e+106
-6.37377e+106
-8.32239e+106
-1.07831e+107
-1.39097e+107
-1.79435e+107
-2.32818e+107
-3.05911e+107
-4.09957e+107
-5.638e+107
-7.98681e+107
-1.16575e+108
-1.7477e+108
-2.67651e+108
-4.16042e+108
-6.52414e+108
-1.02683e+109
-1.61562e+109
-2.5339e+109
-3.95336e+109
-6.12732e+109
-9.42544e+109
-1.43812e+110
-2.17558e+110
-3.26231e+110
-4.84806e+110
-7.13913e+110
-1.04164e+111
-1.50573e+111
-2.15631e+111
-3.059e+111
-4.29863e+111
-5.98326e+111
-8.2486e+111
-1.12625e+112
-1.52292e+112
-2.0393e+112
-2.70412e+112
-3.55046e+112
-4.61566e+112
-5.94079e+112
-7.5699e+112
-9.54868e+112
-1.19227e+113
-1.47349e+113
-1.80232e+113
-2.18166e+113
-2.61318e+113
-3.09692e+113
-3.63083e+113
-4.21038e+113
-4.82804e+113
-5.47287e+113
-6.12985e+113
-6.77913e+113
-7.39485e+113
-7.94338e+113
-8.38089e+113
-8.65033e+113
-8.67905e+113
-8.38103e+113
-7.67187e+113
-6.5088e+113
-4.98185e+113
-6.37386e+113
-2.62519e+112
3.80767e+113
8.69641e+113
1.61393e+114
2.59044e+114
3.82864e+114
5.34782e+114
7.17981e+114
9.35568e+114
1.1899e+115
1.48212e+115
1.81189e+115
2.17719e+115
2.57417e+115
2.997e+115
3.43792e+115
3.88732e+115
4.33403e+115
4.76564e+115
5.16909e+115
5.53125e+115
5.83956e+115
6.08276e+115
6.25145e+115
6.33873e+115
6.34057e+115
6.2561e+115
6.08772e+115
5.84099e+115
5.52433e+115
5.14863e+115
4.72659e+115
4.27214e+115
3.79965e+115
3.32323e+115
2.85611e+115
2.40999e+115
1.99466e+115
1.61762e+115
1.28393e+115
9.9617e+114
7.54546e+114
5.57174e+114
4.00471e+114
2.79666e+114
1.89349e+114
1.24014e+114
7.81816e+113
4.64346e+113
2.45952e+113
-7.02308e+112
2.002e+112
3.17434e+112
7.17594e+111
-1.75466e+111
4.88384e+111
1.16485e+111
6.82636e+110
3.84342e+110
1.70419e+110
6.81919e+109
-2.92603e+110
-9.14561e+109
-3.2153e+109
-9.23107e+108
6.87536e+108
-3.81836e+108
1.10159e+109
-1.36591e+109
-1.99798e+109
5.86256e+107
2.18667e+108
8.93991e+108
4.33719e+107
7.9166e+108
-1.74791e+108
-2.81405e+108
-3.10516e+108
-1.19142e+108
3.42511e+108
-2.63987e+107
-2.53271e+108
-9.31995e+108
-8.35709e+108
-8.60693e+108
-9.63729e+108
-1.03967e+109
-2.40583e+109
-1.57726e+29
-8.10462e+28
-6.34904e+28
-7.8492e+28
-6.31935e+27
8.13769e+28
2.03502e+29
3.92995e+29
7.0789e+29
1.23692e+30
2.18239e+30
3.86142e+30
6.65321e+30
1.05444e+31
1.53133e+31
2.21543e+31
3.02784e+31
3.91731e+31
4.62475e+31
6.47557e+31
1.27866e+32
2.74013e+32
5.21214e+32
1.12851e+33
1.52451e+33
1.68211e+33
8.77507e+32
1.77836e+33
3.02937e+33
5.15687e+33
8.74349e+33
1.52678e+34
2.53476e+34
4.1617e+34
6.66624e+34
1.10827e+35
1.82838e+35
2.93006e+35
4.6439e+35
6.91229e+35
1.12804e+36
1.68025e+36
2.59289e+36
4.08771e+36
7.50257e+36
1.10082e+37
2.08338e+37
4.42988e+37
9.52277e+37
1.74527e+38
2.86073e+38
4.62532e+38
7.45453e+38
1.17441e+39
1.84383e+39
2.88677e+39
4.59212e+39
7.5601e+39
1.28688e+40
2.32976e+40
4.19264e+40
7.33043e+40
1.07687e+41
1.00067e+41
-2.21386e+40
-2.55077e+41
-2.53963e+42
-4.86456e+41
-4.10049e+41
6.91754e+40
5.97e+41
-3.94541e+41
-2.54533e+42
1.72067e+42
-2.02433e+41
-3.20823e+43
-4.89363e+43
-5.42196e+43
-3.89982e+44
-4.78561e+45
-8.43803e+45
-2.77067e+46
-1.01683e+47
-3.6138e+47
-1.26659e+48
-4.55731e+48
1.12187e+48
2.70851e+48
1.09725e+46
1.62336e+46
3.06092e+45
-1.81915e+45
-7.03373e+43
-1.30145e+44
1.18735e+44
3.55333e+44
6.09084e+44
4.84537e+44
-4.67876e+44
-5.74088e+44
-9.36684e+44
2.33673e+45
1.68299e+46
-1.48269e+46
-7.37017e+45
-1.56293e+46
3.45997e+46
-2.43573e+46
-6.53456e+46
2.67458e+46
1.35018e+47
-2.03411e+47
7.70932e+47
2.18044e+48
4.73202e+48
9.80459e+48
9.7706e+48
-1.53558e+49
-2.86485e+49
-4.90787e+49
-2.87226e+49
-2.44168e+51
1.3149e+51
1.76199e+50
1.94376e+49
2.62973e+49
3.48558e+49
-1.04513e+49
1.09036e+50
2.37255e+50
5.643e+51
3.36224e+51
8.16897e+51
1.42573e+52
5.14029e+52
2.86707e+53
9.78525e+52
-4.27622e+53
3.10351e+53
-5.78543e+52
2.90587e+52
-3.29059e+52
-5.79176e+52
-8.32376e+52
-1.09818e+53
-1.28706e+53
-1.34883e+53
-1.45031e+53
-8.49671e+52
-8.11602e+52
-1.23923e+53
-1.18513e+53
-2.49265e+53
-1.92554e+53
-1.05594e+54
7.89844e+53
8.9558e+53
1.14085e+55
2.0033e+55
3.95715e+55
8.01638e+55
1.48371e+56
2.64784e+56
4.09078e+56
5.78545e+56
8.84293e+56
1.24922e+57
1.514e+57
-1.74646e+57
3.80168e+57
-7.97852e+55
5.00164e+58
7.89667e+58
7.58038e+58
1.05387e+59
1.35623e+59
7.61108e+59
2.38655e+59
-2.12194e+60
-4.14807e+60
-7.89522e+60
-1.41867e+61
-2.42187e+61
-3.92553e+61
-5.62596e+61
-6.27901e+61
-7.01995e+61
-4.6942e+62
-5.30779e+62
-1.16658e+63
-5.85012e+63
4.65765e+63
1.0884e+64
7.10526e+63
5.64706e+63
6.76715e+63
1.01914e+64
1.40122e+64
1.94889e+64
2.82746e+64
4.51541e+64
7.70346e+64
1.33255e+65
2.28806e+65
3.975e+65
5.32112e+65
7.57111e+65
1.08068e+66
1.70626e+66
3.29902e+66
7.62022e+66
1.92809e+67
5.01355e+67
1.0092e+68
1.94313e+68
5.56781e+68
1.63696e+69
3.38623e+69
5.55441e+69
1.34603e+70
3.38742e+70
9.2311e+70
1.15053e+71
4.6816e+68
8.41371e+69
-5.24101e+70
-1.06996e+71
-2.13073e+71
-1.87734e+71
4.54604e+69
2.21317e+71
6.70288e+71
1.57762e+72
2.39132e+72
1.84569e+72
-8.74594e+72
6.03055e+72
-8.64724e+73
1.2522e+74
2.11056e+74
4.94584e+73
8.68663e+72
2.08517e+74
-1.8987e+74
1.02413e+74
2.63074e+73
-2.46641e+73
-4.8379e+72
-4.54444e+73
1.91561e+74
9.32332e+74
-2.16357e+75
7.20044e+74
2.39302e+75
8.04196e+75
2.53662e+76
8.18538e+76
2.6121e+77
8.14857e+77
2.44553e+78
6.86906e+78
1.70825e+79
-4.51944e+80
-1.05076e+80
-4.19078e+79
-1.54674e+79
-5.17875e+78
-1.46803e+78
-1.09393e+77
4.90474e+77
9.27717e+77
1.61976e+78
2.26898e+78
4.44351e+78
1.00815e+79
3.02738e+79
-5.26817e+78
-6.32037e+78
-1.76594e+78
3.89243e+78
2.78864e+79
1.16846e+79
5.53091e+79
1.91799e+80
-9.44603e+79
-3.56599e+80
-5.23405e+80
-8.46027e+80
-1.32488e+81
-1.53254e+81
-2.00004e+81
-2.42857e+81
-3.20021e+81
-4.40205e+81
-6.51038e+81
-9.59961e+81
-2.00717e+82
-3.93804e+82
-8.85121e+82
2.01705e+83
-1.99572e+83
2.75219e+83
7.22429e+83
8.02354e+83
6.1255e+83
-1.31784e+83
1.87728e+83
2.1885e+81
-1.27193e+83
-9.31765e+82
-8.27054e+82
-1.7662e+83
7.44416e+83
-3.57394e+83
-7.5153e+83
-4.77229e+83
-4.41298e+83
-6.82282e+83
-4.61706e+83
-5.80747e+83
-1.06691e+84
-7.04028e+82
-4.7894e+83
-8.93658e+83
8.67965e+83
1.09e+84
1.2781e+84
2.68775e+84
3.45628e+84
1.17156e+85
-1.52995e+85
4.91938e+85
4.60114e+85
4.95122e+85
4.60039e+85
6.75384e+85
3.10951e+85
-3.02895e+85
1.51104e+85
-3.9093e+85
-7.18812e+86
7.8908e+85
3.91432e+86
-7.01753e+86
-7.61601e+86
-2.09455e+87
1.75168e+87
-1.05506e+87
-3.63658e+87
-3.93042e+87
-6.99281e+87
-1.02339e+88
-1.5971e+88
-1.70243e+88
-4.12721e+88
-6.85546e+88
-1.08329e+89
-1.44363e+89
-1.13142e+89
1.08178e+89
6.39834e+89
1.3957e+90
2.49897e+90
6.98992e+90
1.64018e+91
4.44685e+91
1.00857e+92
2.0515e+92
4.05606e+92
7.83664e+92
1.48225e+93
2.74636e+93
4.99013e+93
8.89948e+93
1.55883e+94
2.68297e+94
4.53908e+94
7.55032e+94
1.23507e+95
1.98706e+95
3.14457e+95
4.8949e+95
7.49364e+95
1.12781e+96
1.66765e+96
2.42129e+96
3.4523e+96
4.84179e+96
6.69227e+96
9.10539e+96
1.22073e+97
1.56947e+97
2.05318e+97
2.65902e+97
3.29056e+97
4.22731e+97
4.83144e+97
5.71134e+97
6.63926e+97
7.58873e+97
8.52424e+97
9.40727e+97
1.01975e+98
1.08515e+98
1.13248e+98
1.15679e+98
1.15217e+98
1.11084e+98
9.81143e+97
9.43224e+97
7.53872e+97
3.15249e+97
1.34829e+97
-9.98904e+97
-8.78212e+97
7.1545e+98
2.91615e+98
1.87933e+99
5.27012e+99
1.2422e+100
2.74161e+100
5.68514e+100
1.11856e+101
2.16589e+101
4.10194e+101
7.62816e+101
1.39312e+102
2.50144e+102
4.41912e+102
7.68515e+102
1.31614e+103
2.2203e+103
3.69032e+103
6.04393e+103
9.7547e+103
1.55156e+104
2.43213e+104
3.75724e+104
5.72004e+104
8.5815e+104
1.26866e+105
1.84813e+105
2.65289e+105
3.7525e+105
5.23091e+105
7.1874e+105
9.7376e+105
1.30155e+106
1.71787e+106
2.24198e+106
2.89911e+106
3.72539e+106
4.77677e+106
6.14494e+106
7.98459e+106
1.05589e+107
1.43141e+107
1.99996e+107
2.88586e+107
4.29248e+107
6.54798e+107
1.01747e+108
1.59938e+108
2.52799e+108
3.99894e+108
6.30907e+108
9.90366e+108
1.54433e+109
2.38968e+109
3.66694e+109
5.5775e+109
8.40677e+109
1.25543e+110
1.85729e+110
2.72177e+110
3.95075e+110
5.67992e+110
8.08757e+110
1.14048e+111
1.5927e+111
2.2026e+111
3.0163e+111
4.09007e+111
5.49141e+111
7.29984e+111
9.6072e+111
1.25173e+112
1.61449e+112
2.0613e+112
2.60499e+112
3.25837e+112
4.03362e+112
4.94148e+112
5.99035e+112
7.18521e+112
8.52655e+112
1.00091e+113
1.16209e+113
1.33416e+113
1.51417e+113
1.69808e+113
1.8805e+113
2.05443e+113
2.21068e+113
2.33705e+113
2.41726e+113
2.42996e+113
2.3492e+113
2.14898e+113
1.81429e+113
1.35207e+113
7.66942e+112
-1.74662e+112
-8.93018e+112
-2.20701e+113
-4.25064e+113
-6.91948e+113
-1.03221e+114
-1.45047e+114
-1.95554e+114
-2.55626e+114
-3.25956e+114
-4.06892e+114
-4.98366e+114
-5.99831e+114
-7.10223e+114
-8.27931e+114
-9.50791e+114
-1.07612e+115
-1.20079e+115
-1.32134e+115
-1.43408e+115
-1.53534e+115
-1.6216e+115
-1.68966e+115
-1.73691e+115
-1.76139e+115
-1.76196e+115
-1.73838e+115
-1.69132e+115
-1.62234e+115
-1.53381e+115
-1.42878e+115
-1.31083e+115
-1.18386e+115
-1.05192e+115
-9.18956e+114
-7.88681e+114
-6.64374e+114
-5.48768e+114
-4.43958e+114
-3.51346e+114
-2.71636e+114
-2.04868e+114
-1.50492e+114
-1.07487e+114
-7.45179e+113
-5.00736e+113
-3.2546e+113
-2.0041e+113
-1.1332e+113
-5.90888e+112
-3.34039e+112
6.00949e+111
1.55019e+112
4.84846e+111
6.69659e+109
-6.13267e+110
1.36514e+110
-1.53266e+109
1.97929e+110
1.49382e+110
4.10934e+109
1.29565e+110
5.32661e+109
4.12008e+109
5.57287e+108
-9.43317e+108
-6.01473e+108
3.74448e+108
-2.86711e+108
-1.45981e+108
4.349e+108
2.3346e+108
1.22011e+108
-1.17328e+107
3.8949e+108
-2.0032e+107
-4.25216e+107
2.20461e+106
1.10331e+108
8.48638e+107
7.76829e+107
-9.15434e+107
2.16571e+108
1.99142e+108
2.16464e+108
2.35617e+108
1.90455e+108
4.50873e+108
-5.99872e+28
-3.02057e+28
-1.66931e+28
-1.13545e+28
4.97389e+28
8.76679e+28
1.92483e+29
4.05648e+29
8.25608e+29
1.52723e+30
2.69228e+30
4.60115e+30
8.54771e+30
1.48523e+31
2.40744e+31
3.5482e+31
4.80103e+31
5.88244e+31
4.56254e+31
2.45004e+31
3.94336e+31
8.30589e+31
-1.49218e+32
-1.09012e+32
-2.63046e+31
3.24093e+32
4.10024e+32
4.63555e+32
6.53841e+32
7.32709e+32
4.48532e+32
-6.46755e+32
-5.61328e+33
-1.85609e+34
-5.18046e+34
-1.29447e+35
-3.24543e+35
-8.18255e+35
-2.67921e+36
-7.15499e+36
-1.33894e+37
-2.57248e+37
-4.8205e+37
-8.86366e+37
-1.56827e+38
-2.79357e+38
-4.61486e+38
-6.09264e+38
-5.06863e+38
-4.29416e+38
-8.21339e+38
-1.58469e+39
-2.8918e+39
-5.13259e+39
-9.03647e+39
-1.56762e+40
-2.66013e+40
-4.36232e+40
-6.83485e+40
-9.88263e+40
-1.35919e+41
-1.5954e+41
-1.38093e+41
-1.14677e+41
-2.34499e+41
-7.21285e+41
-1.83907e+42
-1.50149e+42
-2.3507e+42
-3.39106e+42
-4.61579e+42
-5.83157e+42
-4.34643e+42
5.80935e+42
1.66931e+43
5.25674e+42
7.96843e+44
3.2902e+45
-1.60996e+45
-5.66996e+45
-1.44909e+46
-4.22727e+46
-1.20151e+47
-2.98707e+47
-6.36335e+47
-1.16859e+48
3.73013e+47
7.02126e+47
3.50539e+46
1.79266e+46
1.22501e+46
5.0343e+45
2.54494e+45
1.47364e+45
6.34494e+44
2.16866e+44
3.37265e+44
1.59875e+42
-3.97298e+44
-7.78132e+44
-1.19939e+45
-2.2258e+45
7.42131e+44
-8.82247e+45
-5.52916e+45
-1.04766e+46
-4.13289e+45
-6.82283e+46
-1.97072e+47
-8.95309e+47
4.74131e+46
1.88419e+48
1.57153e+47
3.05975e+48
5.22057e+48
1.5347e+49
4.31651e+49
-2.00578e+49
-4.10734e+49
-8.10837e+49
-1.27879e+50
-4.99459e+51
-2.10265e+50
-1.03305e+50
-5.85507e+49
1.33888e+49
1.61243e+49
-4.02224e+49
-6.74184e+49
-7.98738e+49
1.56902e+51
1.05336e+51
9.22644e+52
1.49917e+51
9.09676e+50
6.65153e+52
5.52854e+51
3.02528e+52
2.71464e+53
-2.97898e+52
3.19972e+51
-1.2541e+52
-2.34313e+52
-2.05115e+52
-2.39226e+52
-3.0214e+52
-2.42476e+52
-8.82357e+52
-5.27126e+51
8.7568e+51
1.31778e+53
-1.87236e+52
-6.8302e+52
-1.1254e+53
-2.76258e+54
-8.71904e+53
-4.87282e+53
2.84948e+55
3.71747e+55
7.07617e+55
1.32846e+56
2.33096e+56
4.12094e+56
7.77033e+56
1.41597e+57
2.45129e+57
3.96204e+57
5.91047e+57
7.19424e+57
9.38563e+57
1.2086e+58
2.4784e+57
9.76389e+56
4.78349e+58
1.28914e+59
2.1343e+59
5.25027e+59
3.30464e+59
2.76808e+59
-8.07087e+59
-1.84884e+60
-3.78939e+60
-7.48724e+60
-1.46272e+61
-3.02323e+61
-6.96819e+61
-1.66567e+62
-5.20757e+62
-8.45026e+62
-1.37211e+63
-3.57887e+63
1.59462e+63
5.49168e+63
4.87749e+63
4.79593e+63
6.37467e+63
1.00488e+64
1.57685e+64
2.51902e+64
4.06791e+64
6.66103e+64
1.09879e+65
1.81004e+65
2.90388e+65
4.50813e+65
6.19208e+65
7.87172e+65
8.37724e+65
6.30683e+65
1.62323e+65
-2.21748e+65
1.12574e+66
8.77581e+66
2.19793e+67
8.17e+67
1.50599e+68
2.0339e+68
3.67135e+68
1.26154e+69
3.53709e+69
5.83202e+69
1.2653e+70
3.38938e+70
1.09068e+71
1.96815e+71
-8.01004e+70
-1.72083e+71
-2.54427e+71
-2.39622e+71
-3.48725e+71
-4.11635e+71
1.74251e+70
1.27081e+72
2.65735e+72
2.33907e+72
5.38585e+72
3.4482e+73
-3.95643e+72
8.98778e+73
1.63584e+74
-7.53623e+73
-2.02573e+74
-5.06467e+74
-2.37249e+74
1.7645e+74
2.14951e+72
-1.2461e+73
2.84656e+72
-1.25975e+73
1.71171e+73
7.34725e+73
-1.77517e+75
1.3725e+75
3.77322e+75
1.11574e+76
3.16231e+76
9.02835e+76
2.50691e+77
6.65737e+77
1.6525e+78
3.69416e+78
6.8982e+78
-1.42369e+80
-4.14604e+79
-2.20741e+79
-9.92124e+78
-3.89244e+78
-1.19753e+78
2.40278e+76
6.81197e+77
1.14068e+78
1.58478e+78
1.2269e+78
6.72856e+77
1.51802e+78
-3.41975e+79
-5.89088e+79
-7.58629e+79
-5.06078e+79
-3.4294e+79
-7.43253e+79
-1.32685e+80
-1.87643e+80
-2.80676e+80
-3.57528e+80
-4.94155e+80
-6.71748e+80
-9.97514e+80
-1.17189e+81
-1.01138e+81
-1.59672e+81
-1.85268e+81
-2.33766e+81
-3.44308e+81
-7.08324e+81
-1.48409e+82
-2.49932e+82
-7.12202e+82
-1.19611e+83
-6.75885e+82
-1.16947e+83
1.66166e+83
-2.96159e+83
-4.03281e+83
-1.15816e+84
-4.79354e+83
1.68487e+83
-7.57914e+82
-3.04316e+83
-1.13503e+83
-1.05582e+83
-3.69965e+83
1.27101e+84
-1.74596e+83
-9.4638e+83
-3.89645e+83
-4.13929e+83
-9.82866e+83
-5.2263e+83
-5.02012e+83
-7.56154e+83
-2.92082e+83
-5.83851e+83
-1.17194e+83
1.81007e+84
3.06927e+84
4.01605e+84
6.44393e+84
8.835e+84
1.83068e+85
1.29438e+85
3.90994e+85
5.14903e+85
5.84779e+85
5.03779e+85
9.18545e+85
7.00144e+85
-4.12046e+85
-1.13072e+85
-1.42839e+85
-2.01878e+86
1.93352e+86
1.59948e+85
-3.41549e+86
-2.23882e+86
-2.65141e+87
-3.9353e+86
-4.83226e+87
-7.2539e+87
-7.86739e+87
-5.57911e+87
-1.16902e+88
-2.17138e+88
-1.44906e+88
-6.98508e+88
-1.24662e+89
-2.19831e+89
-3.71693e+89
-5.87017e+89
-8.94637e+89
-1.20749e+90
-1.37509e+90
-1.927e+90
-2.44228e+90
-4.50955e+90
-4.70014e+90
-3.6925e+89
3.02506e+91
7.50089e+91
1.62343e+92
3.21731e+92
6.09916e+92
1.12838e+93
2.04357e+93
3.62619e+93
6.30874e+93
1.07681e+94
1.80416e+94
2.96873e+94
4.80007e+94
7.63026e+94
1.19305e+95
1.83519e+95
2.77494e+95
4.11296e+95
5.94465e+95
8.34511e+95
1.147e+96
1.57323e+96
2.14415e+96
3.0272e+96
7.6625e+96
5.29333e+96
6.91609e+96
8.14426e+96
1.75165e+97
1.1656e+97
1.35455e+97
1.56343e+97
1.78095e+97
1.99632e+97
2.19976e+97
2.38074e+97
2.52724e+97
2.6238e+97
2.64048e+97
2.49942e+97
2.09062e+97
-5.14796e+97
7.9327e+96
-1.76601e+98
-3.60964e+98
-7.66982e+98
-1.40686e+99
-2.65726e+99
-2.50646e+99
-1.32172e+99
-1.6582e+99
1.91354e+99
4.94266e+99
5.58394e+99
9.44823e+99
2.21083e+100
4.35521e+100
8.7022e+100
1.66098e+101
3.09305e+101
5.64493e+101
1.01106e+102
1.77889e+102
3.07661e+102
5.23326e+102
8.75827e+102
1.44257e+103
2.33895e+103
3.73367e+103
5.86853e+103
9.08306e+103
1.38441e+104
2.07796e+104
3.07156e+104
4.47133e+104
6.41043e+104
9.05188e+104
1.25905e+105
1.72543e+105
2.33053e+105
3.10433e+105
4.0816e+105
5.30452e+105
6.82837e+105
8.73284e+105
1.11432e+106
1.42674e+106
1.84609e+106
2.43332e+106
3.29257e+106
4.59972e+106
6.64803e+106
9.91956e+106
1.51953e+107
2.37229e+107
3.74684e+107
5.94918e+107
9.44979e+107
1.49636e+108
2.35643e+108
3.68461e+108
5.71486e+108
8.78648e+108
1.33859e+109
2.02019e+109
3.01986e+109
4.47081e+109
6.55485e+109
9.51695e+109
1.36828e+110
1.94798e+110
2.74606e+110
3.83303e+110
5.29746e+110
7.24892e+110
9.82079e+110
1.31726e+111
1.74917e+111
2.2994e+111
2.99226e+111
3.85451e+111
4.91476e+111
6.20269e+111
7.74779e+111
9.57791e+111
1.17174e+112
1.4185e+112
1.69913e+112
2.01365e+112
2.36074e+112
2.7375e+112
3.13915e+112
3.5587e+112
3.98657e+112
4.40994e+112
4.81169e+112
5.16883e+112
5.45011e+112
5.61376e+112
5.60822e+112
5.3823e+112
4.91181e+112
4.23251e+112
3.42025e+112
2.37709e+112
1.02907e+112
-3.94359e+111
-6.23876e+112
-1.05912e+113
-1.68401e+113
-2.48616e+113
-3.47789e+113
-4.67449e+113
-6.09283e+113
-7.74773e+113
-9.64703e+113
-1.17888e+114
-1.41596e+114
-1.67343e+114
-1.94746e+114
-2.23301e+114
-2.52385e+114
-2.81275e+114