/*--------------------------------*- C++ -*----------------------------------*\
  =========                 |
  \\      /  F ield         | OpenFOAM: The Open Source CFD Toolbox
   \\    /   O peration     | Website:  https://openfoam.org
    \\  /    A nd           | Version:  9
     \\/     M anipulation  |
\*---------------------------------------------------------------------------*/
FoamFile
{
    format      ascii;
    class       volVectorField;
    location    "2.65";
    object      U;
}
// * * * * * * * * * * * * * * * * * * * * * * * * * * * * * * * * * * * * * //

dimensions      [0 1 -1 0 0 0 0];

internalField   nonuniform List<vector> 
1000
(
(0.131761 0 0)
(0.1317 0 0)
(0.131762 0 0)
(0.131697 0 0)
(0.131763 0 0)
(0.131695 0 0)
(0.131764 0 0)
(0.131692 0 0)
(0.131764 0 0)
(0.131689 0 0)
(0.131765 0 0)
(0.131686 0 0)
(0.131766 0 0)
(0.131683 0 0)
(0.131766 0 0)
(0.13168 0 0)
(0.131767 0 0)
(0.131677 0 0)
(0.131767 0 0)
(0.131674 0 0)
(0.131767 0 0)
(0.131671 0 0)
(0.131767 0 0)
(0.131668 0 0)
(0.131767 0 0)
(0.131665 0 0)
(0.131767 0 0)
(0.131662 0 0)
(0.131767 0 0)
(0.131659 0 0)
(0.131767 0 0)
(0.131656 0 0)
(0.131766 0 0)
(0.131654 0 0)
(0.131766 0 0)
(0.131651 0 0)
(0.131765 0 0)
(0.131649 0 0)
(0.131765 0 0)
(0.131647 0 0)
(0.131764 0 0)
(0.131645 0 0)
(0.131763 0 0)
(0.131643 0 0)
(0.131763 0 0)
(0.131642 0 0)
(0.131762 0 0)
(0.131641 0 0)
(0.131762 0 0)
(0.131641 0 0)
(0.131762 0 0)
(0.131641 0 0)
(0.131762 0 0)
(0.131642 0 0)
(0.131762 0 0)
(0.131643 0 0)
(0.131762 0 0)
(0.131645 0 0)
(0.131763 0 0)
(0.131648 0 0)
(0.131765 0 0)
(0.131652 0 0)
(0.131767 0 0)
(0.131656 0 0)
(0.13177 0 0)
(0.131662 0 0)
(0.131773 0 0)
(0.131669 0 0)
(0.131778 0 0)
(0.131676 0 0)
(0.131783 0 0)
(0.131685 0 0)
(0.13179 0 0)
(0.131696 0 0)
(0.131797 0 0)
(0.131708 0 0)
(0.131806 0 0)
(0.131721 0 0)
(0.131816 0 0)
(0.131736 0 0)
(0.131828 0 0)
(0.131752 0 0)
(0.131842 0 0)
(0.131769 0 0)
(0.13186 0 0)
(0.131786 0 0)
(0.131883 0 0)
(0.131799 0 0)
(0.131918 0 0)
(0.131801 0 0)
(0.131974 0 0)
(0.131787 0 0)
(0.132053 0 0)
(0.131767 0 0)
(0.132142 0 0)
(0.13178 0 0)
(0.132207 0 0)
(0.131876 0 0)
(0.132239 0 0)
(0.132047 0 0)
(0.132296 0 0)
(0.132221 0 0)
(0.132402 0 0)
(0.132367 0 0)
(0.132521 0 0)
(0.132488 0 0)
(0.132623 0 0)
(0.132583 0 0)
(0.132701 0 0)
(0.132655 0 0)
(0.132757 0 0)
(0.132709 0 0)
(0.132798 0 0)
(0.132752 0 0)
(0.132832 0 0)
(0.132789 0 0)
(0.132864 0 0)
(0.132826 0 0)
(0.132895 0 0)
(0.132862 0 0)
(0.132927 0 0)
(0.1329 0 0)
(0.132961 0 0)
(0.132939 0 0)
(0.132997 0 0)
(0.13298 0 0)
(0.133034 0 0)
(0.133022 0 0)
(0.133073 0 0)
(0.133065 0 0)
(0.133113 0 0)
(0.133109 0 0)
(0.133155 0 0)
(0.133155 0 0)
(0.133198 0 0)
(0.133201 0 0)
(0.133242 0 0)
(0.133249 0 0)
(0.133287 0 0)
(0.133297 0 0)
(0.133333 0 0)
(0.133345 0 0)
(0.13338 0 0)
(0.133394 0 0)
(0.133427 0 0)
(0.133444 0 0)
(0.133475 0 0)
(0.133493 0 0)
(0.133523 0 0)
(0.133543 0 0)
(0.133571 0 0)
(0.133592 0 0)
(0.133619 0 0)
(0.133641 0 0)
(0.133667 0 0)
(0.133689 0 0)
(0.133714 0 0)
(0.133737 0 0)
(0.13376 0 0)
(0.133784 0 0)
(0.133806 0 0)
(0.13383 0 0)
(0.133851 0 0)
(0.133874 0 0)
(0.133894 0 0)
(0.133918 0 0)
(0.133936 0 0)
(0.133959 0 0)
(0.133977 0 0)
(0.133999 0 0)
(0.134015 0 0)
(0.134037 0 0)
(0.134052 0 0)
(0.134073 0 0)
(0.134087 0 0)
(0.134107 0 0)
(0.13412 0 0)
(0.134139 0 0)
(0.13415 0 0)
(0.134167 0 0)
(0.134177 0 0)
(0.134194 0 0)
(0.134202 0 0)
(0.134218 0 0)
(0.134224 0 0)
(0.134239 0 0)
(0.134242 0 0)
(0.134257 0 0)
(0.134257 0 0)
(0.134273 0 0)
(0.134269 0 0)
(0.134285 0 0)
(0.134278 0 0)
(0.134293 0 0)
(0.134285 0 0)
(0.134296 0 0)
(0.134291 0 0)
(0.134298 0 0)
(0.134296 0 0)
(0.134305 0 0)
(0.134305 0 0)
(0.134314 0 0)
(0.134311 0 0)
(0.134305 0 0)
(0.134268 0 0)
(0.134213 0 0)
(0.134125 0 0)
(0.134033 0 0)
(0.133933 0 0)
(0.133852 0 0)
(0.133781 0 0)
(0.133734 0 0)
(0.133696 0 0)
(0.133674 0 0)
(0.133654 0 0)
(0.133644 0 0)
(0.133632 0 0)
(0.133625 0 0)
(0.133614 0 0)
(0.133607 0 0)
(0.133596 0 0)
(0.133589 0 0)
(0.133577 0 0)
(0.133568 0 0)
(0.133555 0 0)
(0.133545 0 0)
(0.133531 0 0)
(0.133519 0 0)
(0.133504 0 0)
(0.133491 0 0)
(0.133475 0 0)
(0.13346 0 0)
(0.133444 0 0)
(0.133428 0 0)
(0.13341 0 0)
(0.133394 0 0)
(0.133375 0 0)
(0.133358 0 0)
(0.133338 0 0)
(0.13332 0 0)
(0.1333 0 0)
(0.13328 0 0)
(0.13326 0 0)
(0.13324 0 0)
(0.133218 0 0)
(0.133198 0 0)
(0.133176 0 0)
(0.133154 0 0)
(0.133132 0 0)
(0.13311 0 0)
(0.133088 0 0)
(0.133066 0 0)
(0.133043 0 0)
(0.13302 0 0)
(0.132997 0 0)
(0.132974 0 0)
(0.132951 0 0)
(0.132928 0 0)
(0.132905 0 0)
(0.132882 0 0)
(0.132858 0 0)
(0.132835 0 0)
(0.132812 0 0)
(0.132789 0 0)
(0.132766 0 0)
(0.132743 0 0)
(0.13272 0 0)
(0.132697 0 0)
(0.132675 0 0)
(0.132652 0 0)
(0.13263 0 0)
(0.132608 0 0)
(0.132586 0 0)
(0.132564 0 0)
(0.132542 0 0)
(0.132521 0 0)
(0.1325 0 0)
(0.132479 0 0)
(0.132459 0 0)
(0.132438 0 0)
(0.132418 0 0)
(0.132398 0 0)
(0.132379 0 0)
(0.13236 0 0)
(0.132341 0 0)
(0.132322 0 0)
(0.132304 0 0)
(0.132286 0 0)
(0.132268 0 0)
(0.132251 0 0)
(0.132234 0 0)
(0.132218 0 0)
(0.132201 0 0)
(0.132186 0 0)
(0.13217 0 0)
(0.132155 0 0)
(0.13214 0 0)
(0.132126 0 0)
(0.132111 0 0)
(0.132098 0 0)
(0.132084 0 0)
(0.132071 0 0)
(0.132058 0 0)
(0.132046 0 0)
(0.132034 0 0)
(0.132022 0 0)
(0.132011 0 0)
(0.132 0 0)
(0.131989 0 0)
(0.131979 0 0)
(0.131969 0 0)
(0.131959 0 0)
(0.131949 0 0)
(0.13194 0 0)
(0.131931 0 0)
(0.131923 0 0)
(0.131915 0 0)
(0.131907 0 0)
(0.131899 0 0)
(0.131892 0 0)
(0.131885 0 0)
(0.131878 0 0)
(0.131871 0 0)
(0.131865 0 0)
(0.131859 0 0)
(0.131853 0 0)
(0.131847 0 0)
(0.131842 0 0)
(0.131836 0 0)
(0.131831 0 0)
(0.131827 0 0)
(0.131822 0 0)
(0.131818 0 0)
(0.131814 0 0)
(0.13181 0 0)
(0.131806 0 0)
(0.131802 0 0)
(0.131799 0 0)
(0.131795 0 0)
(0.131792 0 0)
(0.131789 0 0)
(0.131786 0 0)
(0.131784 0 0)
(0.131781 0 0)
(0.131778 0 0)
(0.131776 0 0)
(0.131774 0 0)
(0.131772 0 0)
(0.13177 0 0)
(0.131768 0 0)
(0.131766 0 0)
(0.131764 0 0)
(0.131763 0 0)
(0.131761 0 0)
(0.13176 0 0)
(0.131758 0 0)
(0.131757 0 0)
(0.131756 0 0)
(0.131755 0 0)
(0.131754 0 0)
(0.131753 0 0)
(0.131752 0 0)
(0.131751 0 0)
(0.13175 0 0)
(0.131749 0 0)
(0.131748 0 0)
(0.131748 0 0)
(0.131747 0 0)
(0.131746 0 0)
(0.131746 0 0)
(0.131745 0 0)
(0.131745 0 0)
(0.131744 0 0)
(0.131744 0 0)
(0.131743 0 0)
(0.131743 0 0)
(0.131743 0 0)
(0.131742 0 0)
(0.131742 0 0)
(0.131742 0 0)
(0.131741 0 0)
(0.131741 0 0)
(0.131741 0 0)
(0.131741 0 0)
(0.13174 0 0)
(0.13174 0 0)
(0.13174 0 0)
(0.13174 0 0)
(0.13174 0 0)
(0.13174 0 0)
(0.13174 0 0)
(0.131739 0 0)
(0.131739 0 0)
(0.131739 0 0)
(0.131739 0 0)
(0.131739 0 0)
(0.131739 0 0)
(0.131739 0 0)
(0.131739 0 0)
(0.131739 0 0)
(0.131739 0 0)
(0.131739 0 0)
(0.131739 0 0)
(0.131738 0 0)
(0.131738 0 0)
(0.131738 0 0)
(0.131738 0 0)
(0.131738 0 0)
(0.131738 0 0)
(0.131738 0 0)
(0.131738 0 0)
(0.131738 0 0)
(0.131738 0 0)
(0.131738 0 0)
(0.131738 0 0)
(0.131738 0 0)
(0.131738 0 0)
(0.131738 0 0)
(0.131738 0 0)
(0.131738 0 0)
(0.131738 0 0)
(0.131738 0 0)
(0.131738 0 0)
(0.131738 0 0)
(0.131738 0 0)
(0.131738 0 0)
(0.131738 0 0)
(0.131738 0 0)
(0.131738 0 0)
(0.131738 0 0)
(0.131738 0 0)
(0.131738 0 0)
(0.131738 0 0)
(0.131738 0 0)
(0.131738 0 0)
(0.131738 0 0)
(0.131738 0 0)
(0.131738 0 0)
(0.131738 0 0)
(0.131738 0 0)
(0.131738 0 0)
(0.131738 0 0)
(0.131738 0 0)
(0.131738 0 0)
(0.131738 0 0)
(0.131738 0 0)
(0.131738 0 0)
(0.131738 0 0)
(0.131738 0 0)
(0.131738 0 0)
(0.131738 0 0)
(0.131738 0 0)
(0.131738 0 0)
(0.131738 0 0)
(0.131738 0 0)
(0.131738 0 0)
(0.131738 0 0)
(0.131738 0 0)
(0.131738 0 0)
(0.131738 0 0)
(0.131738 0 0)
(0.131738 0 0)
(0.131738 0 0)
(0.131738 0 0)
(0.131738 0 0)
(0.131738 0 0)
(0.131738 0 0)
(0.131738 0 0)
(0.131738 0 0)
(0.131738 0 0)
(0.131738 0 0)
(0.131738 0 0)
(0.131738 0 0)
(0.131738 0 0)
(0.131738 0 0)
(0.131738 0 0)
(0.131738 0 0)
(0.131738 0 0)
(0.131738 0 0)
(0.131738 0 0)
(0.131738 0 0)
(0.131738 0 0)
(0.131738 0 0)
(0.131738 0 0)
(0.131738 0 0)
(0.131738 0 0)
(0.131738 0 0)
(0.131738 0 0)
(0.131738 0 0)
(0.131738 0 0)
(0.131738 0 0)
(0.131738 0 0)
(0.131738 0 0)
(0.131738 0 0)
(0.131738 0 0)
(0.131738 0 0)
(0.131738 0 0)
(0.131738 0 0)
(0.131738 0 0)
(0.131738 0 0)
(0.131738 0 0)
(0.131738 0 0)
(0.131738 0 0)
(0.131738 0 0)
(0.131738 0 0)
(0.131738 0 0)
(0.131738 0 0)
(0.131738 0 0)
(0.131738 0 0)
(0.131738 0 0)
(0.131738 0 0)
(0.131738 0 0)
(0.131738 0 0)
(0.131738 0 0)
(0.131738 0 0)
(0.131738 0 0)
(0.131738 0 0)
(0.131738 0 0)
(0.131738 0 0)
(0.131738 0 0)
(0.131738 0 0)
(0.131738 0 0)
(0.131738 0 0)
(0.131738 0 0)
(0.131738 0 0)
(0.131738 0 0)
(0.131738 0 0)
(0.131738 0 0)
(0.131738 0 0)
(0.131738 0 0)
(0.131738 0 0)
(0.131738 0 0)
(0.131738 0 0)
(0.131738 0 0)
(0.131738 0 0)
(0.131738 0 0)
(0.131738 0 0)
(0.131738 0 0)
(0.131738 0 0)
(0.131738 0 0)
(0.131738 0 0)
(0.131738 0 0)
(0.131738 0 0)
(0.131738 0 0)
(0.131738 0 0)
(0.131738 0 0)
(0.131738 0 0)
(0.131738 0 0)
(0.131738 0 0)
(0.131738 0 0)
(0.131738 0 0)
(0.131738 0 0)
(0.131738 0 0)
(0.131738 0 0)
(0.131738 0 0)
(0.131738 0 0)
(0.131738 0 0)
(0.131738 0 0)
(0.131738 0 0)
(0.131738 0 0)
(0.131738 0 0)
(0.131738 0 0)
(0.131738 0 0)
(0.131738 0 0)
(0.131738 0 0)
(0.131738 0 0)
(0.131738 0 0)
(0.131738 0 0)
(0.131738 0 0)
(0.131738 0 0)
(0.131738 0 0)
(0.131738 0 0)
(0.131738 0 0)
(0.131738 0 0)
(0.131738 0 0)
(0.131738 0 0)
(0.131738 0 0)
(0.131738 0 0)
(0.131738 0 0)
(0.131738 0 0)
(0.131738 0 0)
(0.131738 0 0)
(0.131738 0 0)
(0.131738 0 0)
(0.131738 0 0)
(0.131738 0 0)
(0.131738 0 0)
(0.131738 0 0)
(0.131738 0 0)
(0.131738 0 0)
(0.131738 0 0)
(0.131738 0 0)
(0.131738 0 0)
(0.131738 0 0)
(0.131738 0 0)
(0.131738 0 0)
(0.131738 0 0)
(0.131738 0 0)
(0.131738 0 0)
(0.131738 0 0)
(0.131738 0 0)
(0.131738 0 0)
(0.131738 0 0)
(0.131738 0 0)
(0.131738 0 0)
(0.131738 0 0)
(0.131738 0 0)
(0.131738 0 0)
(0.131738 0 0)
(0.131738 0 0)
(0.131738 0 0)
(0.131738 0 0)
(0.131738 0 0)
(0.131738 0 0)
(0.131738 0 0)
(0.131738 0 0)
(0.131738 0 0)
(0.131738 0 0)
(0.131738 0 0)
(0.131738 0 0)
(0.131738 0 0)
(0.131738 0 0)
(0.131738 0 0)
(0.131738 0 0)
(0.131738 0 0)
(0.131738 0 0)
(0.131738 0 0)
(0.131738 0 0)
(0.131738 0 0)
(0.131738 0 0)
(0.131738 0 0)
(0.131738 0 0)
(0.131738 0 0)
(0.131738 0 0)
(0.131738 0 0)
(0.131738 0 0)
(0.131738 0 0)
(0.131738 0 0)
(0.131738 0 0)
(0.131738 0 0)
(0.131738 0 0)
(0.131738 0 0)
(0.131738 0 0)
(0.131738 0 0)
(0.131738 0 0)
(0.131738 0 0)
(0.131738 0 0)
(0.131738 0 0)
(0.131738 0 0)
(0.131738 0 0)
(0.131738 0 0)
(0.131738 0 0)
(0.131738 0 0)
(0.131738 0 0)
(0.131738 0 0)
(0.131738 0 0)
(0.131738 0 0)
(0.131738 0 0)
(0.131738 0 0)
(0.131738 0 0)
(0.131738 0 0)
(0.131738 0 0)
(0.131738 0 0)
(0.131738 0 0)
(0.131738 0 0)
(0.131738 0 0)
(0.131738 0 0)
(0.131738 0 0)
(0.131738 0 0)
(0.131738 0 0)
(0.131738 0 0)
(0.131738 0 0)
(0.131738 0 0)
(0.131738 0 0)
(0.131738 0 0)
(0.131738 0 0)
(0.131738 0 0)
(0.131738 0 0)
(0.131738 0 0)
(0.131738 0 0)
(0.131738 0 0)
(0.131738 0 0)
(0.131738 0 0)
(0.131738 0 0)
(0.131738 0 0)
(0.131738 0 0)
(0.131738 0 0)
(0.131738 0 0)
(0.131738 0 0)
(0.131738 0 0)
(0.131738 0 0)
(0.131738 0 0)
(0.131738 0 0)
(0.131738 0 0)
(0.131738 0 0)
(0.131738 0 0)
(0.131738 0 0)
(0.131738 0 0)
(0.131738 0 0)
(0.131738 0 0)
(0.131738 0 0)
(0.131738 0 0)
(0.131738 0 0)
(0.131738 0 0)
(0.131738 0 0)
(0.131738 0 0)
(0.131738 0 0)
(0.131738 0 0)
(0.131738 0 0)
(0.131738 0 0)
(0.131738 0 0)
(0.131738 0 0)
(0.131738 0 0)
(0.131738 0 0)
(0.131738 0 0)
(0.131738 0 0)
(0.131738 0 0)
(0.131738 0 0)
(0.131738 0 0)
(0.131738 0 0)
(0.131738 0 0)
(0.131738 0 0)
(0.131738 0 0)
(0.131738 0 0)
(0.131738 0 0)
(0.131738 0 0)
(0.131738 0 0)
(0.131738 0 0)
(0.131738 0 0)
(0.131738 0 0)
(0.131738 0 0)
(0.131738 0 0)
(0.131738 0 0)
(0.131738 0 0)
(0.131738 0 0)
(0.131738 0 0)
(0.131738 0 0)
(0.131738 0 0)
(0.131738 0 0)
(0.131738 0 0)
(0.131738 0 0)
(0.131738 0 0)
(0.131738 0 0)
(0.131738 0 0)
(0.131738 0 0)
(0.131738 0 0)
(0.131738 0 0)
(0.131738 0 0)
(0.131738 0 0)
(0.131738 0 0)
(0.131738 0 0)
(0.131738 0 0)
(0.131738 0 0)
(0.131738 0 0)
(0.131738 0 0)
(0.131738 0 0)
(0.131738 0 0)
(0.131738 0 0)
(0.131738 0 0)
(0.131738 0 0)
(0.131738 0 0)
(0.131738 0 0)
(0.131738 0 0)
(0.131738 0 0)
(0.131738 0 0)
(0.131738 0 0)
(0.131738 0 0)
(0.131738 0 0)
(0.131738 0 0)
(0.131738 0 0)
(0.131738 0 0)
(0.131738 0 0)
(0.131738 0 0)
(0.131738 0 0)
(0.131738 0 0)
(0.131738 0 0)
(0.131738 0 0)
(0.131738 0 0)
(0.131738 0 0)
(0.131738 0 0)
(0.131738 0 0)
(0.131738 0 0)
(0.131738 0 0)
(0.131738 0 0)
(0.131738 0 0)
(0.131738 0 0)
(0.131738 0 0)
(0.131738 0 0)
(0.131738 0 0)
(0.131738 0 0)
(0.131738 0 0)
(0.131738 0 0)
(0.131738 0 0)
(0.131738 0 0)
(0.131738 0 0)
(0.131738 0 0)
(0.131738 0 0)
(0.131738 0 0)
(0.131738 0 0)
(0.131738 0 0)
(0.131738 0 0)
(0.131738 0 0)
(0.131738 0 0)
(0.131738 0 0)
(0.131738 0 0)
(0.131738 0 0)
(0.131738 0 0)
(0.131738 0 0)
(0.131738 0 0)
(0.131738 0 0)
(0.131738 0 0)
(0.131738 0 0)
(0.131738 0 0)
(0.131738 0 0)
(0.131738 0 0)
(0.131738 0 0)
(0.131738 0 0)
(0.131738 0 0)
(0.131738 0 0)
(0.131738 0 0)
(0.131738 0 0)
(0.131738 0 0)
(0.131738 0 0)
(0.131738 0 0)
(0.131738 0 0)
(0.131738 0 0)
(0.131738 0 0)
(0.131738 0 0)
(0.131738 0 0)
(0.131738 0 0)
(0.131738 0 0)
(0.131738 0 0)
(0.131738 0 0)
(0.131738 0 0)
(0.131738 0 0)
(0.131738 0 0)
(0.131738 0 0)
(0.131738 0 0)
(0.131738 0 0)
(0.131738 0 0)
(0.131738 0 0)
(0.131738 0 0)
(0.131738 0 0)
(0.131738 0 0)
(0.131738 0 0)
(0.131738 0 0)
(0.131738 0 0)
(0.131738 0 0)
(0.131738 0 0)
(0.131738 0 0)
(0.131738 0 0)
(0.131738 0 0)
(0.131738 0 0)
(0.131738 0 0)
(0.131738 0 0)
(0.131738 0 0)
(0.131738 0 0)
(0.131738 0 0)
(0.131738 0 0)
(0.131738 0 0)
(0.131738 0 0)
(0.131738 0 0)
(0.131738 0 0)
(0.131738 0 0)
(0.131738 0 0)
(0.131738 0 0)
(0.131738 0 0)
(0.131738 0 0)
(0.131738 0 0)
(0.131738 0 0)
(0.131738 0 0)
(0.131738 0 0)
(0.131738 0 0)
(0.131738 0 0)
(0.131738 0 0)
(0.131738 0 0)
(0.131738 0 0)
(0.131738 0 0)
(0.131738 0 0)
(0.131738 0 0)
(0.131738 0 0)
(0.131738 0 0)
(0.131738 0 0)
(0.131738 0 0)
(0.131738 0 0)
(0.131738 0 0)
(0.131738 0 0)
(0.131738 0 0)
(0.131738 0 0)
(0.131738 0 0)
(0.131738 0 0)
(0.131738 0 0)
(0.131738 0 0)
(0.131738 0 0)
(0.131738 0 0)
(0.131738 0 0)
(0.131738 0 0)
(0.131738 0 0)
(0.131738 0 0)
(0.131738 0 0)
(0.131738 0 0)
(0.131738 0 0)
(0.131738 0 0)
(0.131738 0 0)
(0.131738 0 0)
(0.131738 0 0)
(0.131738 0 0)
(0.131738 0 0)
(0.131738 0 0)
(0.131738 0 0)
(0.131738 0 0)
(0.131738 0 0)
(0.131738 0 0)
(0.131738 0 0)
(0.131738 0 0)
(0.131738 0 0)
(0.131738 0 0)
(0.131738 0 0)
(0.131738 0 0)
(0.131737 0 0)
(0.131739 0 0)
(0.131737 0 0)
(0.131739 0 0)
(0.131737 0 0)
(0.131739 0 0)
(0.131737 0 0)
(0.131739 0 0)
(0.131737 0 0)
(0.131739 0 0)
(0.131737 0 0)
(0.131739 0 0)
(0.131737 0 0)
(0.131739 0 0)
(0.131737 0 0)
(0.131739 0 0)
(0.131736 0 0)
(0.13174 0 0)
(0.131736 0 0)
(0.13174 0 0)
(0.131736 0 0)
(0.13174 0 0)
(0.131736 0 0)
(0.13174 0 0)
(0.131735 0 0)
(0.13174 0 0)
(0.131735 0 0)
(0.131741 0 0)
(0.131735 0 0)
(0.131741 0 0)
(0.131734 0 0)
(0.131741 0 0)
(0.131734 0 0)
(0.131742 0 0)
(0.131733 0 0)
(0.131742 0 0)
(0.131733 0 0)
(0.131743 0 0)
(0.131732 0 0)
(0.131743 0 0)
(0.131732 0 0)
(0.131744 0 0)
(0.131731 0 0)
(0.131744 0 0)
(0.13173 0 0)
(0.131745 0 0)
(0.131729 0 0)
(0.131746 0 0)
(0.131728 0 0)
(0.131746 0 0)
(0.131728 0 0)
(0.131747 0 0)
(0.131726 0 0)
(0.131748 0 0)
(0.131725 0 0)
(0.131749 0 0)
(0.131724 0 0)
(0.131749 0 0)
(0.131723 0 0)
(0.13175 0 0)
(0.131721 0 0)
(0.131751 0 0)
(0.13172 0 0)
(0.131752 0 0)
(0.131718 0 0)
(0.131753 0 0)
(0.131717 0 0)
(0.131754 0 0)
(0.131715 0 0)
(0.131755 0 0)
(0.131713 0 0)
(0.131756 0 0)
(0.131711 0 0)
(0.131757 0 0)
(0.131709 0 0)
(0.131758 0 0)
(0.131707 0 0)
(0.131759 0 0)
(0.131705 0 0)
(0.13176 0 0)
(0.131702 0 0)
)
;

boundaryField
{
    topWall
    {
        type            empty;
    }
    bottomWall
    {
        type            empty;
    }
    leftAndRight_half1
    {
        type            cyclic;
    }
    leftAndRight_half0
    {
        type            cyclic;
    }
    frontAndBack
    {
        type            empty;
    }
}


// ************************************************************************* //
