/*--------------------------------*- C++ -*----------------------------------*\
  =========                 |
  \\      /  F ield         | OpenFOAM: The Open Source CFD Toolbox
   \\    /   O peration     | Website:  https://openfoam.org
    \\  /    A nd           | Version:  9
     \\/     M anipulation  |
\*---------------------------------------------------------------------------*/
FoamFile
{
    format      ascii;
    class       volScalarField;
    location    "0.2";
    object      f_0;
}
// * * * * * * * * * * * * * * * * * * * * * * * * * * * * * * * * * * * * * //

dimensions      [1 -3 0 0 0 0 0];

internalField   nonuniform List<scalar> 
1000
(
666.667
666.667
666.667
666.667
666.667
666.667
666.667
666.667
666.667
666.667
666.667
666.667
666.667
666.667
666.667
666.667
666.667
666.667
666.667
666.667
666.667
666.667
666.667
666.667
666.667
666.667
666.667
666.667
666.667
666.667
666.667
666.667
666.667
666.667
666.667
666.667
666.667
666.667
666.667
666.667
666.667
666.667
666.667
666.667
666.667
666.667
666.667
666.667
666.667
666.667
666.667
666.667
666.667
666.667
666.667
666.667
666.667
666.667
666.667
666.667
666.667
666.667
666.667
666.667
666.667
666.667
666.667
666.667
666.667
666.667
666.667
666.667
666.667
666.667
666.667
666.667
666.667
666.667
666.667
666.667
666.667
666.667
666.667
666.667
666.667
666.667
666.667
666.667
666.667
666.667
666.667
666.667
666.667
666.667
666.667
666.667
666.667
666.667
666.667
666.667
666.667
666.667
666.667
666.667
666.667
666.667
666.667
666.667
666.667
666.667
666.667
666.667
666.667
666.667
666.667
666.667
666.667
666.667
666.667
666.667
666.667
666.667
666.667
666.667
666.667
666.667
666.667
666.667
666.667
666.667
666.667
666.667
666.667
666.667
666.667
666.667
666.667
666.667
666.667
666.667
666.667
666.667
666.667
666.667
666.667
666.667
666.667
666.667
666.667
666.667
666.667
666.667
666.667
666.667
666.667
666.667
666.667
666.667
666.667
666.667
666.667
666.667
666.667
666.667
666.667
666.667
666.667
666.667
666.667
666.667
666.667
666.667
666.667
666.667
666.667
666.667
666.667
666.667
666.667
666.667
666.667
666.667
666.667
666.667
666.667
666.667
666.667
666.667
666.667
666.667
666.667
666.667
666.667
666.667
666.667
666.667
666.667
666.667
666.667
666.667
666.667
666.667
666.667
666.667
666.667
666.667
666.667
666.667
666.667
666.667
666.667
666.667
666.667
666.667
666.667
666.667
666.667
666.667
666.667
666.667
666.667
666.667
666.667
666.667
666.667
666.667
666.667
666.667
666.667
666.667
666.667
666.667
666.667
666.667
666.667
666.667
666.667
666.667
666.667
666.667
666.667
666.667
666.667
666.667
666.667
666.667
666.667
666.667
666.667
666.667
666.667
666.667
666.667
666.667
666.667
666.667
666.667
666.667
666.667
666.667
666.667
666.666
666.666
666.666
666.666
666.666
666.666
666.666
666.666
666.666
666.666
666.666
666.666
666.666
666.666
666.666
666.666
666.666
666.666
666.666
666.666
666.666
666.666
666.666
666.666
666.666
666.666
666.666
666.666
666.665
666.665
666.665
666.665
666.665
666.665
666.665
666.665
666.665
666.665
666.664
666.664
666.664
666.664
666.664
666.664
666.663
666.663
666.663
666.663
666.663
666.662
666.662
666.662
666.662
666.661
666.661
666.661
666.66
666.66
666.66
666.659
666.659
666.659
666.658
666.658
666.657
666.657
666.656
666.656
666.655
666.655
666.654
666.654
666.653
666.652
666.652
666.651
666.65
666.65
666.649
666.648
666.647
666.646
666.646
666.645
666.644
666.643
666.642
666.641
666.64
666.639
666.638
666.637
666.636
666.634
666.633
666.632
666.631
666.629
666.628
666.627
666.625
666.624
666.622
666.621
666.619
666.618
666.616
666.615
666.613
666.611
666.61
666.608
666.606
666.605
666.603
666.601
666.599
666.597
666.595
666.593
666.591
666.589
666.587
666.585
666.583
666.581
666.579
666.577
666.575
666.573
666.571
666.569
666.566
666.564
666.562
666.56
666.557
666.555
666.553
666.551
666.548
666.546
666.544
666.541
666.539
666.537
666.534
666.532
666.53
666.527
666.525
666.523
666.52
666.518
666.516
666.513
666.511
666.509
666.506
666.504
666.502
666.5
666.497
666.495
666.493
666.49
666.488
666.486
666.484
666.481
666.479
666.477
666.475
666.473
666.47
666.468
666.466
666.464
666.462
666.46
666.458
666.456
666.454
666.452
666.45
666.448
666.446
666.444
666.442
666.44
666.438
666.436
666.434
666.433
666.431
666.429
666.427
666.425
666.424
666.422
666.42
666.419
666.417
666.415
666.414
666.412
666.41
666.409
666.407
666.406
666.404
666.403
666.401
666.4
666.399
666.397
666.396
666.395
666.393
666.392
666.391
666.389
666.388
666.387
666.386
666.384
666.383
666.382
666.381
666.38
666.379
666.378
666.377
666.376
666.375
666.374
666.373
666.372
666.371
666.37
666.369
666.368
666.367
666.366
666.366
666.365
666.364
666.363
666.362
666.362
666.361
666.36
666.36
666.359
666.358
666.358
666.357
666.357
666.356
666.356
666.355
666.355
666.354
666.354
666.353
666.353
666.353
666.352
666.352
666.352
666.352
666.351
666.351
666.351
666.351
666.351
666.351
666.351
666.351
666.351
666.351
666.351
666.351
666.351
666.352
666.352
666.352
666.353
666.353
666.354
666.354
666.355
666.356
666.357
666.357
666.358
666.359
666.361
666.362
666.363
666.364
666.366
666.368
666.369
666.371
666.373
666.376
666.378
666.381
666.383
666.386
666.389
666.393
666.396
666.4
666.404
666.409
666.414
666.419
666.424
666.43
666.436
666.443
666.45
666.458
666.466
666.475
666.484
666.494
666.505
666.517
666.529
666.542
666.556
666.571
666.586
666.603
666.621
666.64
666.66
666.682
666.704
666.728
666.754
666.781
666.809
666.839
666.87
666.903
666.937
666.973
667.01
667.049
667.088
667.13
667.172
667.215
667.259
667.304
667.349
667.394
667.44
667.484
667.528
667.572
667.613
667.653
667.691
667.726
667.759
667.788
667.814
667.837
667.855
667.87
667.88
667.885
667.887
667.884
667.877
667.865
667.85
667.831
667.808
667.783
667.754
667.723
667.69
667.655
667.619
667.581
667.543
667.504
667.466
667.427
667.388
667.35
667.313
667.277
667.242
667.207
667.174
667.143
667.113
667.084
667.056
667.03
667.005
666.982
666.96
666.939
666.919
666.901
666.884
666.868
666.853
666.839
666.826
666.814
666.803
666.792
666.782
666.773
666.765
666.757
666.75
666.744
666.738
666.732
666.727
666.722
666.718
666.713
666.71
666.706
666.703
666.7
666.697
666.695
666.693
666.691
666.689
666.687
666.685
666.684
666.682
666.681
666.68
666.679
666.678
666.677
666.676
666.675
666.675
666.674
666.673
666.673
666.672
666.672
666.671
666.671
666.671
666.67
666.67
666.67
666.67
666.669
666.669
666.669
666.669
666.669
666.668
666.668
666.668
666.668
666.668
666.668
666.668
666.668
666.668
666.667
666.667
666.667
666.667
666.667
666.667
666.667
666.667
666.667
666.667
666.667
666.667
666.667
666.667
666.667
666.667
666.667
666.667
666.667
666.667
666.667
666.667
666.667
666.667
666.667
666.667
666.667
666.667
666.667
666.667
666.667
666.667
666.667
666.667
666.667
666.667
666.667
666.667
666.667
666.667
666.667
666.667
666.667
666.667
666.667
666.667
666.667
666.667
666.667
666.667
666.667
666.667
666.667
666.667
666.667
666.667
666.667
666.667
666.667
666.667
666.667
666.667
666.667
666.667
666.667
666.667
666.667
666.667
666.667
666.667
666.667
666.667
666.667
666.667
666.667
666.667
666.667
666.667
666.667
666.667
666.667
666.667
666.667
666.667
666.667
666.667
666.667
666.667
666.667
666.667
666.667
666.667
666.667
666.667
666.667
666.667
666.667
666.667
666.667
666.667
666.667
666.667
666.667
666.667
666.667
666.667
666.667
666.667
666.667
666.667
666.667
666.667
666.667
666.667
666.667
666.667
666.667
666.667
666.667
666.667
666.667
666.667
666.667
666.667
666.667
666.667
666.667
666.667
666.667
666.667
666.667
666.667
666.667
666.667
666.667
666.667
666.667
666.667
666.667
666.667
666.667
666.667
666.667
666.667
666.667
666.667
666.667
666.667
666.667
666.667
666.667
666.667
666.667
666.667
666.667
666.667
666.667
666.667
666.667
666.667
666.667
666.667
666.667
666.667
666.667
666.667
666.667
666.667
666.667
666.667
666.667
666.667
666.667
666.667
666.667
666.667
666.667
666.667
666.667
666.667
666.667
666.667
666.667
666.667
666.667
666.667
666.667
666.667
666.667
666.667
666.667
666.667
666.667
666.667
666.667
666.667
666.667
666.667
666.667
666.667
666.667
666.667
666.667
666.667
666.667
666.667
666.667
666.667
666.667
666.667
666.667
666.667
666.667
666.667
666.667
666.667
666.667
666.667
666.667
666.667
666.667
666.667
666.667
666.667
666.667
666.667
666.667
666.667
666.667
666.667
666.667
666.667
666.667
666.667
666.667
666.667
666.667
666.667
666.667
666.667
666.667
666.667
666.667
666.667
666.667
666.667
666.667
666.667
666.667
666.667
666.667
666.667
666.667
666.667
666.667
666.667
666.667
666.667
666.667
)
;

boundaryField
{
    topWall
    {
        type            empty;
    }
    bottomWall
    {
        type            empty;
    }
    leftAndRight_half1
    {
        type            cyclic;
    }
    leftAndRight_half0
    {
        type            cyclic;
    }
    frontAndBack
    {
        type            empty;
    }
}


// ************************************************************************* //
