/*--------------------------------*- C++ -*----------------------------------*\
  =========                 |
  \\      /  F ield         | OpenFOAM: The Open Source CFD Toolbox
   \\    /   O peration     | Website:  https://openfoam.org
    \\  /    A nd           | Version:  9
     \\/     M anipulation  |
\*---------------------------------------------------------------------------*/
FoamFile
{
    format      ascii;
    class       volScalarField;
    location    "0.2";
    object      f_1;
}
// * * * * * * * * * * * * * * * * * * * * * * * * * * * * * * * * * * * * * //

dimensions      [1 -3 0 0 0 0 0];

internalField   nonuniform List<scalar> 
1000
(
168.881
168.881
168.881
168.881
168.881
168.881
168.881
168.881
168.881
168.881
168.881
168.881
168.881
168.881
168.881
168.881
168.881
168.881
168.881
168.881
168.881
168.881
168.881
168.881
168.881
168.881
168.881
168.881
168.881
168.881
168.881
168.881
168.881
168.881
168.881
168.881
168.881
168.881
168.881
168.881
168.881
168.881
168.881
168.881
168.881
168.881
168.881
168.881
168.881
168.881
168.881
168.881
168.881
168.881
168.881
168.881
168.881
168.881
168.881
168.881
168.881
168.881
168.881
168.881
168.881
168.881
168.881
168.881
168.881
168.881
168.881
168.881
168.881
168.881
168.881
168.881
168.881
168.881
168.881
168.881
168.881
168.881
168.881
168.881
168.881
168.881
168.881
168.881
168.881
168.881
168.881
168.881
168.881
168.881
168.881
168.881
168.881
168.881
168.881
168.881
168.881
168.881
168.881
168.881
168.881
168.881
168.881
168.881
168.881
168.881
168.881
168.881
168.881
168.881
168.881
168.881
168.881
168.881
168.881
168.881
168.881
168.881
168.881
168.881
168.881
168.881
168.881
168.881
168.881
168.881
168.881
168.881
168.881
168.881
168.881
168.881
168.881
168.881
168.881
168.881
168.881
168.881
168.881
168.881
168.881
168.881
168.881
168.881
168.881
168.881
168.881
168.881
168.881
168.881
168.881
168.881
168.881
168.881
168.881
168.881
168.881
168.881
168.881
168.881
168.881
168.881
168.881
168.881
168.881
168.881
168.881
168.881
168.881
168.881
168.881
168.881
168.881
168.881
168.881
168.881
168.881
168.881
168.881
168.881
168.881
168.881
168.881
168.881
168.881
168.881
168.881
168.881
168.881
168.881
168.881
168.881
168.881
168.881
168.881
168.881
168.881
168.881
168.881
168.881
168.881
168.881
168.881
168.881
168.881
168.881
168.881
168.881
168.881
168.881
168.881
168.881
168.881
168.881
168.881
168.881
168.881
168.881
168.881
168.881
168.881
168.881
168.881
168.881
168.881
168.881
168.881
168.881
168.881
168.881
168.881
168.881
168.881
168.881
168.881
168.881
168.881
168.881
168.881
168.881
168.881
168.881
168.881
168.881
168.882
168.882
168.882
168.882
168.882
168.882
168.882
168.882
168.882
168.882
168.882
168.882
168.882
168.882
168.882
168.882
168.882
168.883
168.883
168.883
168.883
168.883
168.883
168.883
168.884
168.884
168.884
168.884
168.884
168.885
168.885
168.885
168.885
168.886
168.886
168.886
168.887
168.887
168.888
168.888
168.889
168.889
168.89
168.89
168.891
168.892
168.893
168.893
168.894
168.895
168.896
168.897
168.898
168.899
168.901
168.902
168.903
168.905
168.906
168.908
168.91
168.912
168.914
168.916
168.918
168.92
168.923
168.925
168.928
168.931
168.934
168.937
168.94
168.944
168.948
168.952
168.956
168.96
168.965
168.969
168.974
168.98
168.985
168.991
168.997
169.003
169.01
169.017
169.024
169.032
169.04
169.048
169.057
169.066
169.076
169.086
169.096
169.107
169.118
169.13
169.142
169.154
169.168
169.181
169.196
169.21
169.226
169.242
169.258
169.275
169.293
169.312
169.331
169.35
169.371
169.392
169.414
169.437
169.46
169.484
169.509
169.535
169.561
169.589
169.617
169.646
169.676
169.707
169.739
169.772
169.805
169.84
169.875
169.912
169.95
169.988
170.028
170.068
170.11
170.153
170.196
170.241
170.287
170.334
170.382
170.431
170.482
170.533
170.586
170.64
170.695
170.751
170.808
170.866
170.926
170.987
171.049
171.112
171.177
171.242
171.309
171.377
171.447
171.517
171.589
171.662
171.737
171.812
171.889
171.967
172.046
172.127
172.208
172.291
172.376
172.461
172.548
172.636
172.725
172.815
172.907
172.999
173.093
173.189
173.285
173.383
173.482
173.582
173.683
173.785
173.889
173.994
174.1
174.207
174.315
174.424
174.535
174.647
174.76
174.873
174.989
175.105
175.222
175.34
175.46
175.58
175.702
175.825
175.949
176.073
176.199
176.326
176.454
176.583
176.713
176.844
176.976
177.108
177.242
177.377
177.513
177.65
177.787
177.926
178.066
178.206
178.347
178.49
178.633
178.777
178.922
179.067
179.214
179.361
179.51
179.659
179.809
179.96
180.111
180.263
180.417
180.57
180.725
180.881
181.037
181.194
181.351
181.51
181.669
181.829
181.989
182.15
182.312
182.475
182.638
182.802
182.966
183.131
183.297
183.463
183.63
183.798
183.966
184.135
184.304
184.474
184.644
184.815
184.987
185.159
185.331
185.504
185.678
185.852
186.026
186.201
186.376
186.552
186.728
186.905
187.082
187.259
187.437
187.615
187.794
187.972
188.152
188.331
188.511
188.69
188.871
189.051
189.232
189.412
189.593
189.774
189.956
190.137
190.318
190.5
190.681
190.863
191.044
191.226
191.407
191.588
191.769
191.95
192.13
192.31
192.49
192.669
192.848
193.027
193.204
193.382
193.558
193.734
193.909
194.082
194.255
194.427
194.598
194.767
194.934
195.101
195.265
195.428
195.588
195.747
195.903
196.057
196.207
196.356
196.5
196.642
196.78
196.914
197.044
197.169
197.29
197.405
197.515
197.619
197.716
197.807
197.89
197.966
198.033
198.091
198.14
198.179
198.207
198.224
198.228
198.22
198.198
198.161
198.109
198.041
197.956
197.853
197.732
197.591
197.429
197.247
197.042
196.814
196.563
196.288
195.988
195.663
195.313
194.937
194.535
194.107
193.654
193.176
192.673
192.147
191.599
191.029
190.439
189.831
189.206
188.567
187.916
187.255
186.585
185.911
185.233
184.555
183.879
183.208
182.543
181.887
181.242
180.609
179.991
179.39
178.806
178.24
177.694
177.168
176.664
176.181
175.719
175.279
174.86
174.463
174.087
173.731
173.396
173.08
172.782
172.503
172.242
171.997
171.768
171.554
171.355
171.169
170.996
170.835
170.685
170.547
170.418
170.299
170.188
170.086
169.991
169.904
169.823
169.749
169.68
169.616
169.557
169.503
169.454
169.408
169.365
169.326
169.291
169.258
169.227
169.199
169.174
169.15
169.128
169.108
169.09
169.073
169.057
169.043
169.03
169.018
169.007
168.997
168.987
168.979
168.971
168.964
168.957
168.951
168.945
168.94
168.935
168.931
168.927
168.923
168.92
168.917
168.914
168.911
168.909
168.907
168.904
168.903
168.901
168.899
168.898
168.896
168.895
168.894
168.893
168.892
168.891
168.89
168.89
168.889
168.888
168.888
168.887
168.887
168.886
168.886
168.885
168.885
168.885
168.885
168.884
168.884
168.884
168.884
168.883
168.883
168.883
168.883
168.883
168.883
168.882
168.882
168.882
168.882
168.882
168.882
168.882
168.882
168.882
168.882
168.882
168.882
168.882
168.882
168.882
168.882
168.882
168.881
168.881
168.881
168.881
168.881
168.881
168.881
168.881
168.881
168.881
168.881
168.881
168.881
168.881
168.881
168.881
168.881
168.881
168.881
168.881
168.881
168.881
168.881
168.881
168.881
168.881
168.881
168.881
168.881
168.881
168.881
168.881
168.881
168.881
168.881
168.881
168.881
168.881
168.881
168.881
168.881
168.881
168.881
168.881
168.881
168.881
168.881
168.881
168.881
168.881
168.881
168.881
168.881
168.881
168.881
168.881
168.881
168.881
168.881
168.881
168.881
168.881
168.881
168.881
168.881
168.881
168.881
168.881
168.881
168.881
168.881
168.881
168.881
168.881
168.881
168.881
168.881
168.881
168.881
168.881
168.881
168.881
168.881
168.881
168.881
168.881
168.881
168.881
168.881
168.881
168.881
168.881
168.881
168.881
168.881
168.881
168.881
168.881
168.881
168.881
168.881
168.881
168.881
168.881
168.881
168.881
168.881
168.881
168.881
168.881
168.881
168.881
168.881
168.881
168.881
168.881
168.881
168.881
168.881
168.881
168.881
168.881
168.881
168.881
168.881
168.881
168.881
168.881
168.881
168.881
168.881
168.881
168.881
168.881
168.881
168.881
168.881
168.881
168.881
168.881
168.881
168.881
168.881
168.881
168.881
168.881
168.881
168.881
168.881
168.881
168.881
168.881
168.881
168.881
168.881
168.881
168.881
168.881
168.881
168.881
168.881
168.881
168.881
168.881
168.881
168.881
168.881
168.881
168.881
168.881
168.881
168.881
168.881
168.881
168.881
168.881
168.881
168.881
168.881
168.881
168.881
168.881
168.881
168.881
168.881
168.881
168.881
168.881
168.881
168.881
168.881
168.881
168.881
168.881
168.881
168.881
168.881
168.881
168.881
168.881
168.881
168.881
168.881
168.881
168.881
168.881
168.881
168.881
168.881
168.881
168.881
168.881
168.881
168.881
168.881
168.881
168.881
168.881
168.881
168.881
168.881
168.881
168.881
168.881
168.881
)
;

boundaryField
{
    topWall
    {
        type            empty;
    }
    bottomWall
    {
        type            empty;
    }
    leftAndRight_half1
    {
        type            cyclic;
    }
    leftAndRight_half0
    {
        type            cyclic;
    }
    frontAndBack
    {
        type            empty;
    }
}


// ************************************************************************* //
