/*--------------------------------*- C++ -*----------------------------------*\
  =========                 |
  \\      /  F ield         | OpenFOAM: The Open Source CFD Toolbox
   \\    /   O peration     | Website:  https://openfoam.org
    \\  /    A nd           | Version:  9
     \\/     M anipulation  |
\*---------------------------------------------------------------------------*/
FoamFile
{
    format      ascii;
    class       volScalarField;
    location    "0.2";
    object      f_2;
}
// * * * * * * * * * * * * * * * * * * * * * * * * * * * * * * * * * * * * * //

dimensions      [1 -3 0 0 0 0 0];

internalField   nonuniform List<scalar> 
1000
(
164.481
164.481
164.481
164.481
164.481
164.481
164.481
164.481
164.481
164.481
164.481
164.481
164.481
164.481
164.481
164.481
164.481
164.481
164.481
164.481
164.481
164.481
164.481
164.481
164.481
164.481
164.481
164.481
164.481
164.481
164.481
164.481
164.481
164.481
164.481
164.481
164.481
164.481
164.481
164.481
164.481
164.481
164.481
164.481
164.481
164.481
164.481
164.481
164.481
164.481
164.481
164.481
164.481
164.481
164.481
164.481
164.481
164.481
164.481
164.481
164.481
164.481
164.481
164.481
164.481
164.481
164.481
164.481
164.481
164.481
164.481
164.481
164.481
164.481
164.481
164.481
164.481
164.481
164.481
164.481
164.481
164.481
164.481
164.481
164.481
164.481
164.481
164.481
164.481
164.481
164.481
164.481
164.481
164.481
164.481
164.481
164.481
164.481
164.481
164.481
164.481
164.481
164.481
164.481
164.481
164.481
164.481
164.481
164.481
164.481
164.481
164.481
164.481
164.481
164.481
164.481
164.481
164.481
164.481
164.481
164.481
164.481
164.481
164.481
164.481
164.481
164.481
164.481
164.481
164.481
164.481
164.481
164.481
164.481
164.481
164.481
164.481
164.481
164.481
164.481
164.481
164.481
164.481
164.481
164.481
164.481
164.481
164.481
164.481
164.481
164.481
164.481
164.481
164.481
164.481
164.481
164.481
164.481
164.481
164.481
164.481
164.481
164.481
164.481
164.481
164.481
164.481
164.481
164.481
164.481
164.481
164.481
164.481
164.481
164.481
164.481
164.481
164.481
164.481
164.481
164.481
164.481
164.481
164.481
164.481
164.481
164.481
164.481
164.481
164.481
164.481
164.481
164.481
164.481
164.481
164.481
164.481
164.481
164.481
164.481
164.481
164.481
164.481
164.481
164.481
164.481
164.481
164.481
164.481
164.481
164.481
164.481
164.481
164.481
164.481
164.481
164.481
164.481
164.481
164.481
164.481
164.481
164.481
164.481
164.481
164.481
164.481
164.481
164.481
164.481
164.481
164.481
164.481
164.481
164.481
164.481
164.481
164.481
164.481
164.481
164.481
164.481
164.481
164.481
164.481
164.481
164.481
164.481
164.481
164.481
164.481
164.481
164.481
164.481
164.481
164.48
164.48
164.48
164.48
164.48
164.48
164.48
164.48
164.48
164.48
164.48
164.479
164.479
164.479
164.479
164.479
164.479
164.478
164.478
164.478
164.478
164.477
164.477
164.477
164.477
164.476
164.476
164.475
164.475
164.475
164.474
164.474
164.473
164.472
164.472
164.471
164.47
164.47
164.469
164.468
164.467
164.466
164.465
164.464
164.463
164.462
164.46
164.459
164.457
164.456
164.454
164.452
164.45
164.448
164.446
164.444
164.442
164.439
164.437
164.434
164.431
164.428
164.425
164.422
164.418
164.414
164.41
164.406
164.402
164.397
164.393
164.388
164.382
164.377
164.371
164.365
164.358
164.352
164.345
164.338
164.33
164.322
164.314
164.305
164.296
164.286
164.276
164.266
164.255
164.244
164.233
164.221
164.208
164.195
164.181
164.167
164.152
164.137
164.121
164.105
164.088
164.07
164.052
164.033
164.014
163.994
163.973
163.951
163.929
163.906
163.882
163.857
163.832
163.806
163.779
163.751
163.722
163.693
163.663
163.631
163.599
163.566
163.533
163.498
163.462
163.425
163.388
163.349
163.31
163.269
163.228
163.185
163.141
163.097
163.051
163.005
162.957
162.908
162.858
162.807
162.755
162.702
162.648
162.593
162.537
162.479
162.421
162.361
162.301
162.239
162.176
162.112
162.047
161.98
161.913
161.845
161.775
161.704
161.633
161.56
161.486
161.411
161.335
161.257
161.179
161.1
161.019
160.938
160.855
160.772
160.687
160.601
160.514
160.426
160.338
160.248
160.157
160.065
159.972
159.878
159.783
159.688
159.591
159.493
159.395
159.295
159.194
159.093
158.991
158.888
158.783
158.678
158.573
158.466
158.358
158.25
158.141
158.031
157.92
157.809
157.696
157.583
157.469
157.355
157.239
157.123
157.006
156.889
156.771
156.652
156.532
156.412
156.292
156.17
156.048
155.925
155.802
155.678
155.554
155.429
155.303
155.177
155.05
154.923
154.796
154.667
154.539
154.409
154.28
154.15
154.019
153.888
153.757
153.625
153.493
153.36
153.227
153.093
152.96
152.825
152.691
152.556
152.421
152.285
152.149
152.013
151.877
151.74
151.603
151.466
151.328
151.191
151.053
150.914
150.776
150.637
150.499
150.36
150.22
150.081
149.942
149.802
149.662
149.522
149.382
149.242
149.102
148.961
148.821
148.681
148.54
148.4
148.259
148.118
147.978
147.837
147.697
147.556
147.416
147.275
147.135
146.995
146.855
146.714
146.575
146.435
146.295
146.156
146.017
145.878
145.739
145.6
145.462
145.324
145.187
145.05
144.913
144.777
144.641
144.505
144.37
144.236
144.102
143.969
143.836
143.704
143.573
143.443
143.313
143.185
143.057
142.931
142.805
142.681
142.558
142.436
142.316
142.197
142.08
141.964
141.851
141.739
141.629
141.522
141.417
141.314
141.214
141.117
141.023
140.932
140.845
140.761
140.681
140.606
140.535
140.468
140.407
140.351
140.301
140.257
140.22
140.19
140.167
140.152
140.145
140.147
140.159
140.181
140.213
140.256
140.311
140.379
140.46
140.554
140.663
140.786
140.926
141.082
141.254
141.445
141.653
141.88
142.127
142.393
142.678
142.984
143.31
143.656
144.022
144.408
144.814
145.238
145.681
146.14
146.616
147.107
147.612
148.128
148.656
149.192
149.736
150.284
150.836
151.39
151.942
152.492
153.038
153.577
154.108
154.63
155.141
155.639
156.124
156.593
157.048
157.486
157.907
158.312
158.698
159.067
159.419
159.752
160.069
160.369
160.652
160.918
161.169
161.405
161.627
161.834
162.028
162.209
162.378
162.536
162.683
162.819
162.946
163.064
163.173
163.275
163.369
163.456
163.536
163.61
163.679
163.743
163.801
163.855
163.905
163.951
163.994
164.033
164.069
164.102
164.132
164.161
164.186
164.21
164.232
164.252
164.271
164.288
164.303
164.318
164.331
164.343
164.354
164.365
164.374
164.383
164.391
164.398
164.405
164.411
164.417
164.422
164.427
164.431
164.435
164.439
164.442
164.445
164.448
164.451
164.453
164.456
164.458
164.46
164.461
164.463
164.464
164.466
164.467
164.468
164.469
164.47
164.471
164.472
164.473
164.473
164.474
164.475
164.475
164.476
164.476
164.476
164.477
164.477
164.478
164.478
164.478
164.478
164.479
164.479
164.479
164.479
164.479
164.479
164.48
164.48
164.48
164.48
164.48
164.48
164.48
164.48
164.48
164.48
164.481
164.481
164.481
164.481
164.481
164.481
164.481
164.481
164.481
164.481
164.481
164.481
164.481
164.481
164.481
164.481
164.481
164.481
164.481
164.481
164.481
164.481
164.481
164.481
164.481
164.481
164.481
164.481
164.481
164.481
164.481
164.481
164.481
164.481
164.481
164.481
164.481
164.481
164.481
164.481
164.481
164.481
164.481
164.481
164.481
164.481
164.481
164.481
164.481
164.481
164.481
164.481
164.481
164.481
164.481
164.481
164.481
164.481
164.481
164.481
164.481
164.481
164.481
164.481
164.481
164.481
164.481
164.481
164.481
164.481
164.481
164.481
164.481
164.481
164.481
164.481
164.481
164.481
164.481
164.481
164.481
164.481
164.481
164.481
164.481
164.481
164.481
164.481
164.481
164.481
164.481
164.481
164.481
164.481
164.481
164.481
164.481
164.481
164.481
164.481
164.481
164.481
164.481
164.481
164.481
164.481
164.481
164.481
164.481
164.481
164.481
164.481
164.481
164.481
164.481
164.481
164.481
164.481
164.481
164.481
164.481
164.481
164.481
164.481
164.481
164.481
164.481
164.481
164.481
164.481
164.481
164.481
164.481
164.481
164.481
164.481
164.481
164.481
164.481
164.481
164.481
164.481
164.481
164.481
164.481
164.481
164.481
164.481
164.481
164.481
164.481
164.481
164.481
164.481
164.481
164.481
164.481
164.481
164.481
164.481
164.481
164.481
164.481
164.481
164.481
164.481
164.481
164.481
164.481
164.481
164.481
164.481
164.481
164.481
164.481
164.481
164.481
164.481
164.481
164.481
164.481
164.481
164.481
164.481
164.481
164.481
164.481
164.481
164.481
164.481
164.481
164.481
164.481
164.481
164.481
164.481
164.481
164.481
164.481
164.481
164.481
164.481
164.481
164.481
164.481
164.481
164.481
164.481
164.481
164.481
164.481
164.481
164.481
164.481
164.481
164.481
164.481
164.481
164.481
164.481
164.481
164.481
164.481
164.481
164.481
164.481
164.481
164.481
164.481
164.481
164.481
164.481
164.481
164.481
164.481
164.481
164.481
)
;

boundaryField
{
    topWall
    {
        type            empty;
    }
    bottomWall
    {
        type            empty;
    }
    leftAndRight_half1
    {
        type            cyclic;
    }
    leftAndRight_half0
    {
        type            cyclic;
    }
    frontAndBack
    {
        type            empty;
    }
}


// ************************************************************************* //
