/*--------------------------------*- C++ -*----------------------------------*\
  =========                 |
  \\      /  F ield         | OpenFOAM: The Open Source CFD Toolbox
   \\    /   O peration     | Website:  https://openfoam.org
    \\  /    A nd           | Version:  9
     \\/     M anipulation  |
\*---------------------------------------------------------------------------*/
FoamFile
{
    format      ascii;
    class       volScalarField;
    location    "0.2";
    object      p;
}
// * * * * * * * * * * * * * * * * * * * * * * * * * * * * * * * * * * * * * //

dimensions      [1 -1 -2 0 0 0 0];

internalField   nonuniform List<scalar> 
1000
(
100097
100097
100097
100097
100097
100097
100097
100097
100097
100097
100097
100097
100097
100097
100097
100097
100097
100097
100097
100097
100097
100097
100097
100097
100097
100097
100097
100097
100097
100097
100097
100097
100097
100097
100097
100097
100097
100097
100097
100097
100097
100097
100097
100097
100097
100097
100097
100097
100097
100097
100097
100097
100097
100097
100097
100097
100097
100097
100097
100097
100097
100097
100097
100097
100097
100097
100097
100097
100097
100097
100097
100097
100097
100097
100097
100097
100097
100097
100097
100097
100097
100097
100097
100097
100097
100097
100097
100097
100097
100097
100097
100097
100097
100097
100097
100097
100097
100097
100097
100097
100097
100097
100097
100097
100097
100097
100097
100097
100097
100097
100097
100097
100097
100097
100097
100097
100097
100097
100097
100097
100097
100097
100097
100097
100097
100097
100097
100097
100097
100097
100097
100097
100097
100097
100097
100097
100097
100097
100097
100097
100097
100097
100097
100097
100097
100097
100097
100097
100097
100097
100097
100097
100097
100097
100097
100097
100097
100097
100097
100097
100097
100097
100097
100097
100097
100097
100097
100097
100097
100097
100097
100097
100097
100097
100097
100097
100097
100097
100097
100097
100097
100097
100097
100097
100097
100097
100097
100097
100097
100097
100097
100097
100097
100097
100097
100097
100097
100097
100097
100097
100097
100097
100097
100097
100097
100097
100097
100097
100097
100097
100097
100097
100097
100097
100097
100097
100097
100097
100097
100097
100097
100097
100097
100097
100097
100097
100097
100097
100097
100097
100097
100097
100097
100097
100097
100097
100097
100097
100097
100097
100097
100097
100097
100097
100096
100096
100096
100096
100096
100096
100096
100096
100096
100096
100096
100096
100096
100096
100096
100096
100096
100096
100095
100095
100095
100095
100095
100095
100095
100095
100094
100094
100094
100094
100094
100093
100093
100093
100093
100092
100092
100092
100091
100091
100091
100090
100090
100089
100089
100088
100088
100087
100087
100086
100085
100084
100084
100083
100082
100081
100080
100079
100078
100077
100076
100074
100073
100072
100070
100069
100067
100066
100064
100062
100060
100058
100056
100054
100052
100049
100047
100044
100042
100039
100036
100033
100030
100026
100023
100020
100016
100012
100008
100004
100000
99995.7
99991.2
99986.6
99981.8
99976.9
99971.8
99966.5
99961.1
99955.6
99949.9
99944
99937.9
99931.7
99925.4
99918.8
99912.1
99905.3
99898.3
99891.1
99883.8
99876.3
99868.6
99860.8
99852.8
99844.7
99836.5
99828
99819.5
99810.8
99802
99793.1
99784
99774.8
99765.5
99756.1
99746.6
99737
99727.3
99717.5
99707.7
99697.8
99687.8
99677.8
99667.8
99657.7
99647.6
99637.6
99627.5
99617.4
99607.3
99597.3
99587.3
99577.4
99567.6
99557.8
99548.1
99538.6
99529.1
99519.8
99510.7
99501.7
99492.9
99484.3
99475.9
99467.7
99459.7
99452
99444.6
99437.5
99430.6
99424.1
99417.9
99412
99406.5
99401.4
99396.6
99392.3
99388.4
99384.9
99381.9
99379.4
99377.4
99375.8
99374.8
99374.3
99374.4
99375
99376.2
99378
99380.4
99383.5
99387.2
99391.6
99396.6
99402.3
99408.7
99415.9
99423.8
99432.4
99441.8
99452
99462.9
99474.7
99487.3
99500.7
99515
99530.1
99546.1
99563
99580.8
99599.5
99619.1
99639.7
99661.2
99683.6
99707
99731.4
99756.8
99783.3
99810.7
99839.1
99868.6
99899.1
99930.7
99963.3
99997.1
100032
100068
100105
100143
100182
100223
100264
100307
100350
100395
100442
100489
100537
100587
100638
100690
100743
100798
100854
100911
100969
101028
101089
101151
101214
101279
101345
101412
101480
101549
101620
101693
101766
101841
101917
101994
102073
102153
102234
102317
102401
102486
102573
102661
102750
102841
102933
103026
103121
103217
103314
103413
103513
103614
103717
103821
103927
104034
104142
104251
104362
104474
104588
104703
104819
104937
105056
105176
105298
105421
105545
105671
105798
105926
106056
106187
106320
106453
106588
106725
106862
107001
107141
107283
107426
107570
107715
107862
108010
108159
108310
108461
108614
108768
108924
109080
109238
109397
109557
109718
109881
110044
110209
110374
110541
110709
110878
111047
111218
111390
111563
111736
111910
112086
112262
112438
112616
112794
112973
113152
113332
113512
113693
113874
114055
114236
114417
114599
114780
114960
115141
115321
115500
115678
115855
116031
116205
116377
116548
116716
116882
117044
117204
117359
117510
117657
117798
117933
118062
118184
118298
118403
118499
118584
118658
118719
118767
118801
118819
118820
118804
118769
118713
118636
118538
118416
118270
118099
117904
117683
117437
117165
116867
116546
116200
115832
115442
115032
114604
114161
113703
113233
112753
112267
111776
111282
110789
110298
109811
109330
108858
108395
107944
107505
107080
106670
106274
105895
105532
105185
104854
104540
104242
103961
103694
103443
103207
102985
102777
102582
102400
102230
102071
101922
101784
101656
101537
101426
101323
101228
101140
101058
100983
100913
100848
100789
100734
100683
100636
100593
100553
100516
100483
100452
100423
100397
100372
100350
100330
100311
100293
100277
100263
100249
100237
100226
100215
100206
100197
100189
100181
100174
100168
100162
100157
100152
100148
100143
100140
100136
100133
100130
100127
100125
100123
100121
100119
100117
100115
100114
100112
100111
100110
100109
100108
100107
100106
100105
100105
100104
100104
100103
100103
100102
100102
100101
100101
100101
100100
100100
100100
100099
100099
100099
100099
100099
100099
100098
100098
100098
100098
100098
100098
100098
100098
100098
100098
100097
100097
100097
100097
100097
100097
100097
100097
100097
100097
100097
100097
100097
100097
100097
100097
100097
100097
100097
100097
100097
100097
100097
100097
100097
100097
100097
100097
100097
100097
100097
100097
100097
100097
100097
100097
100097
100097
100097
100097
100097
100097
100097
100097
100097
100097
100097
100097
100097
100097
100097
100097
100097
100097
100097
100097
100097
100097
100097
100097
100097
100097
100097
100097
100097
100097
100097
100097
100097
100097
100097
100097
100097
100097
100097
100097
100097
100097
100097
100097
100097
100097
100097
100097
100097
100097
100097
100097
100097
100097
100097
100097
100097
100097
100097
100097
100097
100097
100097
100097
100097
100097
100097
100097
100097
100097
100097
100097
100097
100097
100097
100097
100097
100097
100097
100097
100097
100097
100097
100097
100097
100097
100097
100097
100097
100097
100097
100097
100097
100097
100097
100097
100097
100097
100097
100097
100097
100097
100097
100097
100097
100097
100097
100097
100097
100097
100097
100097
100097
100097
100097
100097
100097
100097
100097
100097
100097
100097
100097
100097
100097
100097
100097
100097
100097
100097
100097
100097
100097
100097
100097
100097
100097
100097
100097
100097
100097
100097
100097
100097
100097
100097
100097
100097
100097
100097
100097
100097
100097
100097
100097
100097
100097
100097
100097
100097
100097
100097
100097
100097
100097
100097
100097
100097
100097
100097
100097
100097
100097
100097
100097
100097
100097
100097
100097
100097
100097
100097
100097
100097
100097
100097
100097
100097
100097
100097
100097
100097
100097
100097
100097
100097
)
;

boundaryField
{
    topWall
    {
        type            empty;
    }
    bottomWall
    {
        type            empty;
    }
    leftAndRight_half1
    {
        type            cyclic;
    }
    leftAndRight_half0
    {
        type            cyclic;
    }
    frontAndBack
    {
        type            empty;
    }
}


// ************************************************************************* //
