/*--------------------------------*- C++ -*----------------------------------*\
  =========                 |
  \\      /  F ield         | OpenFOAM: The Open Source CFD Toolbox
   \\    /   O peration     | Website:  https://openfoam.org
    \\  /    A nd           | Version:  9
     \\/     M anipulation  |
\*---------------------------------------------------------------------------*/
FoamFile
{
    format      ascii;
    class       volVectorField;
    location    "0.2";
    object      U;
}
// * * * * * * * * * * * * * * * * * * * * * * * * * * * * * * * * * * * * * //

dimensions      [0 1 -1 0 0 0 0];

internalField   nonuniform List<vector> 
1000
(
(0.439989 0 0)
(0.439989 0 0)
(0.439989 0 0)
(0.439989 0 0)
(0.439989 0 0)
(0.439989 0 0)
(0.439989 0 0)
(0.439989 0 0)
(0.439989 0 0)
(0.439989 0 0)
(0.439989 0 0)
(0.439989 0 0)
(0.439989 0 0)
(0.439989 0 0)
(0.439989 0 0)
(0.439989 0 0)
(0.439989 0 0)
(0.439989 0 0)
(0.439989 0 0)
(0.439989 0 0)
(0.439989 0 0)
(0.439989 0 0)
(0.439989 0 0)
(0.439989 0 0)
(0.439989 0 0)
(0.439989 0 0)
(0.439989 0 0)
(0.439989 0 0)
(0.439989 0 0)
(0.439989 0 0)
(0.439989 0 0)
(0.439989 0 0)
(0.439989 0 0)
(0.439989 0 0)
(0.439989 0 0)
(0.439989 0 0)
(0.439989 0 0)
(0.439989 0 0)
(0.439989 0 0)
(0.439989 0 0)
(0.439989 0 0)
(0.439989 0 0)
(0.439989 0 0)
(0.439989 0 0)
(0.439989 0 0)
(0.439989 0 0)
(0.439989 0 0)
(0.439989 0 0)
(0.439989 0 0)
(0.439989 0 0)
(0.439989 0 0)
(0.439989 0 0)
(0.439989 0 0)
(0.439989 0 0)
(0.439989 0 0)
(0.439989 0 0)
(0.439989 0 0)
(0.439989 0 0)
(0.439989 0 0)
(0.439989 0 0)
(0.439989 0 0)
(0.439989 0 0)
(0.439989 0 0)
(0.439989 0 0)
(0.439989 0 0)
(0.439989 0 0)
(0.439989 0 0)
(0.439989 0 0)
(0.439989 0 0)
(0.439989 0 0)
(0.439989 0 0)
(0.439989 0 0)
(0.439989 0 0)
(0.439989 0 0)
(0.439989 0 0)
(0.439989 0 0)
(0.439989 0 0)
(0.439989 0 0)
(0.439989 0 0)
(0.439989 0 0)
(0.439989 0 0)
(0.439989 0 0)
(0.439989 0 0)
(0.439989 0 0)
(0.439989 0 0)
(0.439989 0 0)
(0.439989 0 0)
(0.439989 0 0)
(0.439989 0 0)
(0.439989 0 0)
(0.439989 0 0)
(0.439989 0 0)
(0.439989 0 0)
(0.439989 0 0)
(0.439989 0 0)
(0.439989 0 0)
(0.439989 0 0)
(0.439989 0 0)
(0.439989 0 0)
(0.439989 0 0)
(0.439989 0 0)
(0.439989 0 0)
(0.439989 0 0)
(0.439989 0 0)
(0.439989 0 0)
(0.439989 0 0)
(0.439989 0 0)
(0.439989 0 0)
(0.439989 0 0)
(0.439989 0 0)
(0.439989 0 0)
(0.439989 0 0)
(0.439989 0 0)
(0.439989 0 0)
(0.439989 0 0)
(0.439989 0 0)
(0.439989 0 0)
(0.439989 0 0)
(0.439989 0 0)
(0.439989 0 0)
(0.439989 0 0)
(0.439989 0 0)
(0.439989 0 0)
(0.439989 0 0)
(0.439989 0 0)
(0.439989 0 0)
(0.439989 0 0)
(0.439989 0 0)
(0.439989 0 0)
(0.439989 0 0)
(0.439989 0 0)
(0.439989 0 0)
(0.439989 0 0)
(0.439989 0 0)
(0.439989 0 0)
(0.439989 0 0)
(0.439989 0 0)
(0.439989 0 0)
(0.439989 0 0)
(0.439989 0 0)
(0.439989 0 0)
(0.439989 0 0)
(0.439989 0 0)
(0.439989 0 0)
(0.439989 0 0)
(0.439989 0 0)
(0.439989 0 0)
(0.439989 0 0)
(0.439989 0 0)
(0.439989 0 0)
(0.439989 0 0)
(0.439989 0 0)
(0.439989 0 0)
(0.439989 0 0)
(0.439989 0 0)
(0.439989 0 0)
(0.439989 0 0)
(0.439989 0 0)
(0.439989 0 0)
(0.439989 0 0)
(0.439989 0 0)
(0.439989 0 0)
(0.439989 0 0)
(0.439989 0 0)
(0.439989 0 0)
(0.439989 0 0)
(0.439989 0 0)
(0.439989 0 0)
(0.439989 0 0)
(0.439989 0 0)
(0.439989 0 0)
(0.439989 0 0)
(0.439989 0 0)
(0.439989 0 0)
(0.439989 0 0)
(0.439989 0 0)
(0.439989 0 0)
(0.439989 0 0)
(0.439989 0 0)
(0.439989 0 0)
(0.439989 0 0)
(0.439989 0 0)
(0.439989 0 0)
(0.439989 0 0)
(0.439989 0 0)
(0.439989 0 0)
(0.439989 0 0)
(0.439989 0 0)
(0.439989 0 0)
(0.439989 0 0)
(0.439989 0 0)
(0.439989 0 0)
(0.439989 0 0)
(0.439989 0 0)
(0.439989 0 0)
(0.439989 0 0)
(0.439989 0 0)
(0.43999 0 0)
(0.43999 0 0)
(0.43999 0 0)
(0.43999 0 0)
(0.43999 0 0)
(0.43999 0 0)
(0.43999 0 0)
(0.43999 0 0)
(0.43999 0 0)
(0.43999 0 0)
(0.439991 0 0)
(0.439991 0 0)
(0.439991 0 0)
(0.439991 0 0)
(0.439991 0 0)
(0.439992 0 0)
(0.439992 0 0)
(0.439992 0 0)
(0.439993 0 0)
(0.439993 0 0)
(0.439993 0 0)
(0.439994 0 0)
(0.439994 0 0)
(0.439995 0 0)
(0.439995 0 0)
(0.439996 0 0)
(0.439997 0 0)
(0.439998 0 0)
(0.439998 0 0)
(0.439999 0 0)
(0.44 0 0)
(0.440001 0 0)
(0.440003 0 0)
(0.440004 0 0)
(0.440005 0 0)
(0.440007 0 0)
(0.440009 0 0)
(0.440011 0 0)
(0.440013 0 0)
(0.440015 0 0)
(0.440017 0 0)
(0.44002 0 0)
(0.440023 0 0)
(0.440026 0 0)
(0.440029 0 0)
(0.440033 0 0)
(0.440037 0 0)
(0.440041 0 0)
(0.440046 0 0)
(0.440051 0 0)
(0.440056 0 0)
(0.440062 0 0)
(0.440069 0 0)
(0.440076 0 0)
(0.440083 0 0)
(0.440092 0 0)
(0.440101 0 0)
(0.44011 0 0)
(0.440121 0 0)
(0.440132 0 0)
(0.440144 0 0)
(0.440157 0 0)
(0.440171 0 0)
(0.440187 0 0)
(0.440203 0 0)
(0.440221 0 0)
(0.44024 0 0)
(0.440261 0 0)
(0.440284 0 0)
(0.440308 0 0)
(0.440333 0 0)
(0.440361 0 0)
(0.440391 0 0)
(0.440423 0 0)
(0.440458 0 0)
(0.440495 0 0)
(0.440535 0 0)
(0.440578 0 0)
(0.440624 0 0)
(0.440673 0 0)
(0.440726 0 0)
(0.440783 0 0)
(0.440843 0 0)
(0.440908 0 0)
(0.440978 0 0)
(0.441052 0 0)
(0.441131 0 0)
(0.441216 0 0)
(0.441307 0 0)
(0.441404 0 0)
(0.441508 0 0)
(0.441618 0 0)
(0.441736 0 0)
(0.441862 0 0)
(0.441996 0 0)
(0.442138 0 0)
(0.44229 0 0)
(0.442452 0 0)
(0.442624 0 0)
(0.442808 0 0)
(0.443002 0 0)
(0.443209 0 0)
(0.443429 0 0)
(0.443663 0 0)
(0.443911 0 0)
(0.444174 0 0)
(0.444452 0 0)
(0.444748 0 0)
(0.445061 0 0)
(0.445393 0 0)
(0.445745 0 0)
(0.446116 0 0)
(0.44651 0 0)
(0.446926 0 0)
(0.447365 0 0)
(0.44783 0 0)
(0.44832 0 0)
(0.448838 0 0)
(0.449385 0 0)
(0.449961 0 0)
(0.450569 0 0)
(0.451209 0 0)
(0.451883 0 0)
(0.452594 0 0)
(0.453341 0 0)
(0.454127 0 0)
(0.454954 0 0)
(0.455823 0 0)
(0.456736 0 0)
(0.457695 0 0)
(0.458702 0 0)
(0.459758 0 0)
(0.460866 0 0)
(0.462028 0 0)
(0.463245 0 0)
(0.46452 0 0)
(0.465855 0 0)
(0.467252 0 0)
(0.468714 0 0)
(0.470243 0 0)
(0.47184 0 0)
(0.47351 0 0)
(0.475253 0 0)
(0.477073 0 0)
(0.478972 0 0)
(0.480953 0 0)
(0.483018 0 0)
(0.48517 0 0)
(0.487411 0 0)
(0.489746 0 0)
(0.492175 0 0)
(0.494703 0 0)
(0.497331 0 0)
(0.500063 0 0)
(0.502902 0 0)
(0.505851 0 0)
(0.508912 0 0)
(0.512089 0 0)
(0.515384 0 0)
(0.518801 0 0)
(0.522342 0 0)
(0.526011 0 0)
(0.52981 0 0)
(0.533743 0 0)
(0.537813 0 0)
(0.542023 0 0)
(0.546375 0 0)
(0.550874 0 0)
(0.555521 0 0)
(0.560319 0 0)
(0.565273 0 0)
(0.570385 0 0)
(0.575657 0 0)
(0.581093 0 0)
(0.586695 0 0)
(0.592467 0 0)
(0.598411 0 0)
(0.60453 0 0)
(0.610827 0 0)
(0.617305 0 0)
(0.623965 0 0)
(0.630812 0 0)
(0.637847 0 0)
(0.645072 0 0)
(0.652492 0 0)
(0.660107 0 0)
(0.66792 0 0)
(0.675933 0 0)
(0.684149 0 0)
(0.69257 0 0)
(0.701198 0 0)
(0.710034 0 0)
(0.719082 0 0)
(0.728341 0 0)
(0.737816 0 0)
(0.747507 0 0)
(0.757415 0 0)
(0.767543 0 0)
(0.777892 0 0)
(0.788463 0 0)
(0.799258 0 0)
(0.810277 0 0)
(0.821523 0 0)
(0.832995 0 0)
(0.844696 0 0)
(0.856626 0 0)
(0.868785 0 0)
(0.881175 0 0)
(0.893797 0 0)
(0.90665 0 0)
(0.919735 0 0)
(0.933053 0 0)
(0.946604 0 0)
(0.960388 0 0)
(0.974406 0 0)
(0.988658 0 0)
(1.00314 0 0)
(1.01786 0 0)
(1.03281 0 0)
(1.048 0 0)
(1.06342 0 0)
(1.07907 0 0)
(1.09495 0 0)
(1.11106 0 0)
(1.12741 0 0)
(1.14399 0 0)
(1.16079 0 0)
(1.17783 0 0)
(1.19509 0 0)
(1.21258 0 0)
(1.23029 0 0)
(1.24824 0 0)
(1.2664 0 0)
(1.28479 0 0)
(1.3034 0 0)
(1.32223 0 0)
(1.34129 0 0)
(1.36056 0 0)
(1.38004 0 0)
(1.39974 0 0)
(1.41966 0 0)
(1.43979 0 0)
(1.46013 0 0)
(1.48068 0 0)
(1.50144 0 0)
(1.5224 0 0)
(1.54357 0 0)
(1.56494 0 0)
(1.58652 0 0)
(1.60829 0 0)
(1.63026 0 0)
(1.65243 0 0)
(1.67479 0 0)
(1.69735 0 0)
(1.72009 0 0)
(1.74302 0 0)
(1.76615 0 0)
(1.78945 0 0)
(1.81294 0 0)
(1.83661 0 0)
(1.86046 0 0)
(1.88449 0 0)
(1.90869 0 0)
(1.93307 0 0)
(1.95762 0 0)
(1.98233 0 0)
(2.00722 0 0)
(2.03227 0 0)
(2.05749 0 0)
(2.08286 0 0)
(2.1084 0 0)
(2.13409 0 0)
(2.15994 0 0)
(2.18595 0 0)
(2.2121 0 0)
(2.23841 0 0)
(2.26486 0 0)
(2.29146 0 0)
(2.3182 0 0)
(2.34508 0 0)
(2.37211 0 0)
(2.39927 0 0)
(2.42657 0 0)
(2.454 0 0)
(2.48156 0 0)
(2.50926 0 0)
(2.53708 0 0)
(2.56503 0 0)
(2.5931 0 0)
(2.6213 0 0)
(2.64961 0 0)
(2.67804 0 0)
(2.70659 0 0)
(2.73526 0 0)
(2.76403 0 0)
(2.79292 0 0)
(2.82192 0 0)
(2.85102 0 0)
(2.88023 0 0)
(2.90954 0 0)
(2.93895 0 0)
(2.96846 0 0)
(2.99807 0 0)
(3.02778 0 0)
(3.05757 0 0)
(3.08746 0 0)
(3.11744 0 0)
(3.14751 0 0)
(3.17766 0 0)
(3.2079 0 0)
(3.23822 0 0)
(3.26862 0 0)
(3.29909 0 0)
(3.32965 0 0)
(3.36027 0 0)
(3.39097 0 0)
(3.42174 0 0)
(3.45258 0 0)
(3.48349 0 0)
(3.51445 0 0)
(3.54548 0 0)
(3.57658 0 0)
(3.60772 0 0)
(3.63893 0 0)
(3.67019 0 0)
(3.7015 0 0)
(3.73286 0 0)
(3.76426 0 0)
(3.79571 0 0)
(3.82721 0 0)
(3.85874 0 0)
(3.89031 0 0)
(3.92191 0 0)
(3.95355 0 0)
(3.98522 0 0)
(4.01691 0 0)
(4.04863 0 0)
(4.08037 0 0)
(4.11212 0 0)
(4.14389 0 0)
(4.17568 0 0)
(4.20747 0 0)
(4.23927 0 0)
(4.27106 0 0)
(4.30286 0 0)
(4.33465 0 0)
(4.36643 0 0)
(4.39819 0 0)
(4.42994 0 0)
(4.46166 0 0)
(4.49336 0 0)
(4.52502 0 0)
(4.55664 0 0)
(4.58822 0 0)
(4.61975 0 0)
(4.65122 0 0)
(4.68263 0 0)
(4.71397 0 0)
(4.74523 0 0)
(4.7764 0 0)
(4.80749 0 0)
(4.83847 0 0)
(4.86934 0 0)
(4.9001 0 0)
(4.93072 0 0)
(4.9612 0 0)
(4.99152 0 0)
(5.02168 0 0)
(5.05166 0 0)
(5.08145 0 0)
(5.11104 0 0)
(5.14039 0 0)
(5.16951 0 0)
(5.19837 0 0)
(5.22695 0 0)
(5.25523 0 0)
(5.2832 0 0)
(5.31082 0 0)
(5.33807 0 0)
(5.36492 0 0)
(5.39135 0 0)
(5.41733 0 0)
(5.44282 0 0)
(5.46778 0 0)
(5.49219 0 0)
(5.516 0 0)
(5.53917 0 0)
(5.56165 0 0)
(5.58339 0 0)
(5.60435 0 0)
(5.62447 0 0)
(5.64368 0 0)
(5.66194 0 0)
(5.67916 0 0)
(5.69529 0 0)
(5.71024 0 0)
(5.72394 0 0)
(5.7363 0 0)
(5.74723 0 0)
(5.75664 0 0)
(5.76443 0 0)
(5.77049 0 0)
(5.77472 0 0)
(5.777 0 0)
(5.7772 0 0)
(5.77521 0 0)
(5.77089 0 0)
(5.76411 0 0)
(5.75473 0 0)
(5.7426 0 0)
(5.72758 0 0)
(5.70952 0 0)
(5.68826 0 0)
(5.66367 0 0)
(5.63558 0 0)
(5.60385 0 0)
(5.56834 0 0)
(5.5289 0 0)
(5.48542 0 0)
(5.43776 0 0)
(5.38582 0 0)
(5.32951 0 0)
(5.26876 0 0)
(5.2035 0 0)
(5.1337 0 0)
(5.05937 0 0)
(4.98051 0 0)
(4.89717 0 0)
(4.80945 0 0)
(4.71746 0 0)
(4.62135 0 0)
(4.5213 0 0)
(4.41755 0 0)
(4.31034 0 0)
(4.19996 0 0)
(4.08676 0 0)
(3.97106 0 0)
(3.85326 0 0)
(3.73375 0 0)
(3.61295 0 0)
(3.49128 0 0)
(3.36918 0 0)
(3.24709 0 0)
(3.12544 0 0)
(3.00464 0 0)
(2.88512 0 0)
(2.76724 0 0)
(2.65138 0 0)
(2.53788 0 0)
(2.42703 0 0)
(2.31912 0 0)
(2.21437 0 0)
(2.11299 0 0)
(2.01516 0 0)
(1.921 0 0)
(1.83062 0 0)
(1.74408 0 0)
(1.66142 0 0)
(1.58265 0 0)
(1.50775 0 0)
(1.43668 0 0)
(1.36939 0 0)
(1.30579 0 0)
(1.24579 0 0)
(1.18929 0 0)
(1.13617 0 0)
(1.0863 0 0)
(1.03956 0 0)
(0.995799 0 0)
(0.954892 0 0)
(0.916698 0 0)
(0.881077 0 0)
(0.847892 0 0)
(0.817008 0 0)
(0.788293 0 0)
(0.761619 0 0)
(0.736862 0 0)
(0.713902 0 0)
(0.692624 0 0)
(0.67292 0 0)
(0.654684 0 0)
(0.637817 0 0)
(0.622225 0 0)
(0.60782 0 0)
(0.594517 0 0)
(0.582239 0 0)
(0.57091 0 0)
(0.560462 0 0)
(0.55083 0 0)
(0.541953 0 0)
(0.533774 0 0)
(0.526241 0 0)
(0.519304 0 0)
(0.512918 0 0)
(0.50704 0 0)
(0.501632 0 0)
(0.496656 0 0)
(0.492079 0 0)
(0.487869 0 0)
(0.483998 0 0)
(0.480438 0 0)
(0.477166 0 0)
(0.474157 0 0)
(0.471391 0 0)
(0.46885 0 0)
(0.466513 0 0)
(0.464366 0 0)
(0.462393 0 0)
(0.460579 0 0)
(0.458913 0 0)
(0.457381 0 0)
(0.455974 0 0)
(0.454681 0 0)
(0.453492 0 0)
(0.4524 0 0)
(0.451397 0 0)
(0.450474 0 0)
(0.449627 0 0)
(0.448848 0 0)
(0.448132 0 0)
(0.447474 0 0)
(0.446869 0 0)
(0.446313 0 0)
(0.445802 0 0)
(0.445333 0 0)
(0.444901 0 0)
(0.444504 0 0)
(0.444139 0 0)
(0.443804 0 0)
(0.443495 0 0)
(0.443212 0 0)
(0.442951 0 0)
(0.442711 0 0)
(0.442491 0 0)
(0.442288 0 0)
(0.442102 0 0)
(0.441931 0 0)
(0.441773 0 0)
(0.441628 0 0)
(0.441495 0 0)
(0.441373 0 0)
(0.44126 0 0)
(0.441157 0 0)
(0.441061 0 0)
(0.440974 0 0)
(0.440893 0 0)
(0.440819 0 0)
(0.440751 0 0)
(0.440689 0 0)
(0.440631 0 0)
(0.440578 0 0)
(0.44053 0 0)
(0.440485 0 0)
(0.440444 0 0)
(0.440407 0 0)
(0.440372 0 0)
(0.44034 0 0)
(0.440311 0 0)
(0.440284 0 0)
(0.440259 0 0)
(0.440237 0 0)
(0.440216 0 0)
(0.440197 0 0)
(0.440179 0 0)
(0.440163 0 0)
(0.440149 0 0)
(0.440135 0 0)
(0.440123 0 0)
(0.440111 0 0)
(0.440101 0 0)
(0.440091 0 0)
(0.440083 0 0)
(0.440074 0 0)
(0.440067 0 0)
(0.44006 0 0)
(0.440054 0 0)
(0.440049 0 0)
(0.440043 0 0)
(0.440039 0 0)
(0.440034 0 0)
(0.44003 0 0)
(0.440027 0 0)
(0.440023 0 0)
(0.44002 0 0)
(0.440018 0 0)
(0.440015 0 0)
(0.440013 0 0)
(0.440011 0 0)
(0.440009 0 0)
(0.440007 0 0)
(0.440005 0 0)
(0.440004 0 0)
(0.440002 0 0)
(0.440001 0 0)
(0.44 0 0)
(0.439999 0 0)
(0.439998 0 0)
(0.439997 0 0)
(0.439997 0 0)
(0.439996 0 0)
(0.439995 0 0)
(0.439995 0 0)
(0.439994 0 0)
(0.439994 0 0)
(0.439993 0 0)
(0.439993 0 0)
(0.439992 0 0)
(0.439992 0 0)
(0.439992 0 0)
(0.439991 0 0)
(0.439991 0 0)
(0.439991 0 0)
(0.439991 0 0)
(0.439991 0 0)
(0.43999 0 0)
(0.43999 0 0)
(0.43999 0 0)
(0.43999 0 0)
(0.43999 0 0)
(0.43999 0 0)
(0.43999 0 0)
(0.43999 0 0)
(0.43999 0 0)
(0.43999 0 0)
(0.439989 0 0)
(0.439989 0 0)
(0.439989 0 0)
(0.439989 0 0)
(0.439989 0 0)
(0.439989 0 0)
(0.439989 0 0)
(0.439989 0 0)
(0.439989 0 0)
(0.439989 0 0)
(0.439989 0 0)
(0.439989 0 0)
(0.439989 0 0)
(0.439989 0 0)
(0.439989 0 0)
(0.439989 0 0)
(0.439989 0 0)
(0.439989 0 0)
(0.439989 0 0)
(0.439989 0 0)
(0.439989 0 0)
(0.439989 0 0)
(0.439989 0 0)
(0.439989 0 0)
(0.439989 0 0)
(0.439989 0 0)
(0.439989 0 0)
(0.439989 0 0)
(0.439989 0 0)
(0.439989 0 0)
(0.439989 0 0)
(0.439989 0 0)
(0.439989 0 0)
(0.439989 0 0)
(0.439989 0 0)
(0.439989 0 0)
(0.439989 0 0)
(0.439989 0 0)
(0.439989 0 0)
(0.439989 0 0)
(0.439989 0 0)
(0.439989 0 0)
(0.439989 0 0)
(0.439989 0 0)
(0.439989 0 0)
(0.439989 0 0)
(0.439989 0 0)
(0.439989 0 0)
(0.439989 0 0)
(0.439989 0 0)
(0.439989 0 0)
(0.439989 0 0)
(0.439989 0 0)
(0.439989 0 0)
(0.439989 0 0)
(0.439989 0 0)
(0.439989 0 0)
(0.439989 0 0)
(0.439989 0 0)
(0.439989 0 0)
(0.439989 0 0)
(0.439989 0 0)
(0.439989 0 0)
(0.439989 0 0)
(0.439989 0 0)
(0.439989 0 0)
(0.439989 0 0)
(0.439989 0 0)
(0.439989 0 0)
(0.439989 0 0)
(0.439989 0 0)
(0.439989 0 0)
(0.439989 0 0)
(0.439989 0 0)
(0.439989 0 0)
(0.439989 0 0)
(0.439989 0 0)
(0.439989 0 0)
(0.439989 0 0)
(0.439989 0 0)
(0.439989 0 0)
(0.439989 0 0)
(0.439989 0 0)
(0.439989 0 0)
(0.439989 0 0)
(0.439989 0 0)
(0.439989 0 0)
(0.439989 0 0)
(0.439989 0 0)
(0.439989 0 0)
(0.439989 0 0)
(0.439989 0 0)
(0.439989 0 0)
(0.439989 0 0)
(0.439989 0 0)
(0.439989 0 0)
(0.439989 0 0)
(0.439989 0 0)
(0.439989 0 0)
(0.439989 0 0)
(0.439989 0 0)
(0.439989 0 0)
(0.439989 0 0)
(0.439989 0 0)
(0.439989 0 0)
(0.439989 0 0)
(0.439989 0 0)
(0.439989 0 0)
(0.439989 0 0)
(0.439989 0 0)
(0.439989 0 0)
(0.439989 0 0)
(0.439989 0 0)
(0.439989 0 0)
(0.439989 0 0)
(0.439989 0 0)
(0.439989 0 0)
(0.439989 0 0)
(0.439989 0 0)
(0.439989 0 0)
(0.439989 0 0)
(0.439989 0 0)
(0.439989 0 0)
(0.439989 0 0)
(0.439989 0 0)
(0.439989 0 0)
(0.439989 0 0)
(0.439989 0 0)
(0.439989 0 0)
(0.439989 0 0)
(0.439989 0 0)
(0.439989 0 0)
(0.439989 0 0)
(0.439989 0 0)
(0.439989 0 0)
(0.439989 0 0)
(0.439989 0 0)
(0.439989 0 0)
(0.439989 0 0)
(0.439989 0 0)
(0.439989 0 0)
(0.439989 0 0)
(0.439989 0 0)
(0.439989 0 0)
(0.439989 0 0)
(0.439989 0 0)
(0.439989 0 0)
(0.439989 0 0)
(0.439989 0 0)
(0.439989 0 0)
(0.439989 0 0)
(0.439989 0 0)
(0.439989 0 0)
(0.439989 0 0)
(0.439989 0 0)
(0.439989 0 0)
(0.439989 0 0)
(0.439989 0 0)
(0.439989 0 0)
(0.439989 0 0)
(0.439989 0 0)
(0.439989 0 0)
(0.439989 0 0)
(0.439989 0 0)
(0.439989 0 0)
(0.439989 0 0)
(0.439989 0 0)
(0.439989 0 0)
(0.439989 0 0)
(0.439989 0 0)
(0.439989 0 0)
(0.439989 0 0)
(0.439989 0 0)
(0.439989 0 0)
(0.439989 0 0)
(0.439989 0 0)
(0.439989 0 0)
(0.439989 0 0)
(0.439989 0 0)
)
;

boundaryField
{
    topWall
    {
        type            empty;
    }
    bottomWall
    {
        type            empty;
    }
    leftAndRight_half1
    {
        type            cyclic;
    }
    leftAndRight_half0
    {
        type            cyclic;
    }
    frontAndBack
    {
        type            empty;
    }
}


// ************************************************************************* //
