/*--------------------------------*- C++ -*----------------------------------*\
  =========                 |
  \\      /  F ield         | OpenFOAM: The Open Source CFD Toolbox
   \\    /   O peration     | Website:  https://openfoam.org
    \\  /    A nd           | Version:  9
     \\/     M anipulation  |
\*---------------------------------------------------------------------------*/
FoamFile
{
    format      ascii;
    class       volVectorField;
    location    "2.55";
    object      U;
}
// * * * * * * * * * * * * * * * * * * * * * * * * * * * * * * * * * * * * * //

dimensions      [0 1 -1 0 0 0 0];

internalField   nonuniform List<vector> 
1000
(
(0.13176 0 0)
(0.131701 0 0)
(0.131761 0 0)
(0.131699 0 0)
(0.131762 0 0)
(0.131696 0 0)
(0.131763 0 0)
(0.131693 0 0)
(0.131764 0 0)
(0.13169 0 0)
(0.131765 0 0)
(0.131687 0 0)
(0.131765 0 0)
(0.131684 0 0)
(0.131766 0 0)
(0.131681 0 0)
(0.131766 0 0)
(0.131678 0 0)
(0.131767 0 0)
(0.131675 0 0)
(0.131767 0 0)
(0.131671 0 0)
(0.131767 0 0)
(0.131668 0 0)
(0.131767 0 0)
(0.131665 0 0)
(0.131767 0 0)
(0.131661 0 0)
(0.131767 0 0)
(0.131658 0 0)
(0.131766 0 0)
(0.131655 0 0)
(0.131766 0 0)
(0.131652 0 0)
(0.131765 0 0)
(0.131649 0 0)
(0.131765 0 0)
(0.131647 0 0)
(0.131764 0 0)
(0.131644 0 0)
(0.131763 0 0)
(0.131642 0 0)
(0.131762 0 0)
(0.13164 0 0)
(0.131762 0 0)
(0.131638 0 0)
(0.131761 0 0)
(0.131637 0 0)
(0.13176 0 0)
(0.131636 0 0)
(0.13176 0 0)
(0.131636 0 0)
(0.131759 0 0)
(0.131636 0 0)
(0.131759 0 0)
(0.131637 0 0)
(0.131759 0 0)
(0.131638 0 0)
(0.13176 0 0)
(0.131641 0 0)
(0.131761 0 0)
(0.131644 0 0)
(0.131763 0 0)
(0.131648 0 0)
(0.131765 0 0)
(0.131653 0 0)
(0.131768 0 0)
(0.131659 0 0)
(0.131772 0 0)
(0.131667 0 0)
(0.131777 0 0)
(0.131675 0 0)
(0.131783 0 0)
(0.131685 0 0)
(0.13179 0 0)
(0.131697 0 0)
(0.131799 0 0)
(0.13171 0 0)
(0.131808 0 0)
(0.131724 0 0)
(0.13182 0 0)
(0.131741 0 0)
(0.131834 0 0)
(0.131758 0 0)
(0.131851 0 0)
(0.131774 0 0)
(0.131874 0 0)
(0.131787 0 0)
(0.131909 0 0)
(0.131789 0 0)
(0.131964 0 0)
(0.131775 0 0)
(0.132043 0 0)
(0.131755 0 0)
(0.132132 0 0)
(0.131769 0 0)
(0.132198 0 0)
(0.131865 0 0)
(0.13223 0 0)
(0.132036 0 0)
(0.132287 0 0)
(0.132211 0 0)
(0.132393 0 0)
(0.132358 0 0)
(0.132513 0 0)
(0.132479 0 0)
(0.132616 0 0)
(0.132575 0 0)
(0.132694 0 0)
(0.132648 0 0)
(0.132751 0 0)
(0.132703 0 0)
(0.132793 0 0)
(0.132747 0 0)
(0.132828 0 0)
(0.132786 0 0)
(0.132861 0 0)
(0.132823 0 0)
(0.132893 0 0)
(0.132861 0 0)
(0.132926 0 0)
(0.132901 0 0)
(0.132962 0 0)
(0.132941 0 0)
(0.132999 0 0)
(0.132983 0 0)
(0.133037 0 0)
(0.133027 0 0)
(0.133078 0 0)
(0.133072 0 0)
(0.13312 0 0)
(0.133118 0 0)
(0.133163 0 0)
(0.133165 0 0)
(0.133208 0 0)
(0.133213 0 0)
(0.133254 0 0)
(0.133262 0 0)
(0.1333 0 0)
(0.133312 0 0)
(0.133348 0 0)
(0.133363 0 0)
(0.133397 0 0)
(0.133413 0 0)
(0.133446 0 0)
(0.133464 0 0)
(0.133495 0 0)
(0.133516 0 0)
(0.133545 0 0)
(0.133567 0 0)
(0.133595 0 0)
(0.133618 0 0)
(0.133644 0 0)
(0.133668 0 0)
(0.133693 0 0)
(0.133718 0 0)
(0.133742 0 0)
(0.133767 0 0)
(0.13379 0 0)
(0.133815 0 0)
(0.133837 0 0)
(0.133862 0 0)
(0.133883 0 0)
(0.133908 0 0)
(0.133927 0 0)
(0.133952 0 0)
(0.13397 0 0)
(0.133994 0 0)
(0.134012 0 0)
(0.134035 0 0)
(0.134051 0 0)
(0.134074 0 0)
(0.134089 0 0)
(0.13411 0 0)
(0.134124 0 0)
(0.134145 0 0)
(0.134157 0 0)
(0.134176 0 0)
(0.134188 0 0)
(0.134206 0 0)
(0.134215 0 0)
(0.134232 0 0)
(0.13424 0 0)
(0.134256 0 0)
(0.134262 0 0)
(0.134277 0 0)
(0.13428 0 0)
(0.134295 0 0)
(0.134295 0 0)
(0.13431 0 0)
(0.134306 0 0)
(0.134322 0 0)
(0.134314 0 0)
(0.134329 0 0)
(0.134321 0 0)
(0.134331 0 0)
(0.134326 0 0)
(0.134333 0 0)
(0.13433 0 0)
(0.134338 0 0)
(0.134338 0 0)
(0.134347 0 0)
(0.134343 0 0)
(0.134336 0 0)
(0.134299 0 0)
(0.134243 0 0)
(0.134154 0 0)
(0.134061 0 0)
(0.13396 0 0)
(0.133878 0 0)
(0.133807 0 0)
(0.133759 0 0)
(0.13372 0 0)
(0.133697 0 0)
(0.133677 0 0)
(0.133666 0 0)
(0.133652 0 0)
(0.133644 0 0)
(0.133633 0 0)
(0.133625 0 0)
(0.133613 0 0)
(0.133605 0 0)
(0.133592 0 0)
(0.133582 0 0)
(0.133568 0 0)
(0.133556 0 0)
(0.133541 0 0)
(0.133528 0 0)
(0.133512 0 0)
(0.133498 0 0)
(0.133481 0 0)
(0.133466 0 0)
(0.133448 0 0)
(0.133431 0 0)
(0.133412 0 0)
(0.133395 0 0)
(0.133375 0 0)
(0.133357 0 0)
(0.133336 0 0)
(0.133317 0 0)
(0.133295 0 0)
(0.133275 0 0)
(0.133253 0 0)
(0.133232 0 0)
(0.13321 0 0)
(0.133188 0 0)
(0.133165 0 0)
(0.133143 0 0)
(0.13312 0 0)
(0.133097 0 0)
(0.133074 0 0)
(0.133051 0 0)
(0.133027 0 0)
(0.133003 0 0)
(0.13298 0 0)
(0.132956 0 0)
(0.132932 0 0)
(0.132908 0 0)
(0.132884 0 0)
(0.13286 0 0)
(0.132836 0 0)
(0.132813 0 0)
(0.132789 0 0)
(0.132765 0 0)
(0.132742 0 0)
(0.132718 0 0)
(0.132695 0 0)
(0.132672 0 0)
(0.132648 0 0)
(0.132626 0 0)
(0.132603 0 0)
(0.13258 0 0)
(0.132558 0 0)
(0.132536 0 0)
(0.132514 0 0)
(0.132493 0 0)
(0.132471 0 0)
(0.13245 0 0)
(0.13243 0 0)
(0.132409 0 0)
(0.132389 0 0)
(0.132369 0 0)
(0.13235 0 0)
(0.132331 0 0)
(0.132312 0 0)
(0.132293 0 0)
(0.132275 0 0)
(0.132258 0 0)
(0.13224 0 0)
(0.132223 0 0)
(0.132206 0 0)
(0.13219 0 0)
(0.132174 0 0)
(0.132158 0 0)
(0.132143 0 0)
(0.132128 0 0)
(0.132114 0 0)
(0.1321 0 0)
(0.132086 0 0)
(0.132072 0 0)
(0.132059 0 0)
(0.132047 0 0)
(0.132034 0 0)
(0.132022 0 0)
(0.132011 0 0)
(0.131999 0 0)
(0.131988 0 0)
(0.131978 0 0)
(0.131968 0 0)
(0.131958 0 0)
(0.131948 0 0)
(0.131939 0 0)
(0.13193 0 0)
(0.131921 0 0)
(0.131913 0 0)
(0.131905 0 0)
(0.131897 0 0)
(0.131889 0 0)
(0.131882 0 0)
(0.131875 0 0)
(0.131869 0 0)
(0.131862 0 0)
(0.131856 0 0)
(0.13185 0 0)
(0.131845 0 0)
(0.131839 0 0)
(0.131834 0 0)
(0.131829 0 0)
(0.131824 0 0)
(0.13182 0 0)
(0.131815 0 0)
(0.131811 0 0)
(0.131807 0 0)
(0.131803 0 0)
(0.1318 0 0)
(0.131796 0 0)
(0.131793 0 0)
(0.13179 0 0)
(0.131787 0 0)
(0.131784 0 0)
(0.131782 0 0)
(0.131779 0 0)
(0.131777 0 0)
(0.131774 0 0)
(0.131772 0 0)
(0.13177 0 0)
(0.131768 0 0)
(0.131766 0 0)
(0.131764 0 0)
(0.131763 0 0)
(0.131761 0 0)
(0.13176 0 0)
(0.131758 0 0)
(0.131757 0 0)
(0.131756 0 0)
(0.131755 0 0)
(0.131754 0 0)
(0.131753 0 0)
(0.131752 0 0)
(0.131751 0 0)
(0.13175 0 0)
(0.131749 0 0)
(0.131748 0 0)
(0.131747 0 0)
(0.131747 0 0)
(0.131746 0 0)
(0.131746 0 0)
(0.131745 0 0)
(0.131745 0 0)
(0.131744 0 0)
(0.131744 0 0)
(0.131743 0 0)
(0.131743 0 0)
(0.131742 0 0)
(0.131742 0 0)
(0.131742 0 0)
(0.131742 0 0)
(0.131741 0 0)
(0.131741 0 0)
(0.131741 0 0)
(0.131741 0 0)
(0.13174 0 0)
(0.13174 0 0)
(0.13174 0 0)
(0.13174 0 0)
(0.13174 0 0)
(0.13174 0 0)
(0.131739 0 0)
(0.131739 0 0)
(0.131739 0 0)
(0.131739 0 0)
(0.131739 0 0)
(0.131739 0 0)
(0.131739 0 0)
(0.131739 0 0)
(0.131739 0 0)
(0.131739 0 0)
(0.131739 0 0)
(0.131739 0 0)
(0.131738 0 0)
(0.131738 0 0)
(0.131738 0 0)
(0.131738 0 0)
(0.131738 0 0)
(0.131738 0 0)
(0.131738 0 0)
(0.131738 0 0)
(0.131738 0 0)
(0.131738 0 0)
(0.131738 0 0)
(0.131738 0 0)
(0.131738 0 0)
(0.131738 0 0)
(0.131738 0 0)
(0.131738 0 0)
(0.131738 0 0)
(0.131738 0 0)
(0.131738 0 0)
(0.131738 0 0)
(0.131738 0 0)
(0.131738 0 0)
(0.131738 0 0)
(0.131738 0 0)
(0.131738 0 0)
(0.131738 0 0)
(0.131738 0 0)
(0.131738 0 0)
(0.131738 0 0)
(0.131738 0 0)
(0.131738 0 0)
(0.131738 0 0)
(0.131738 0 0)
(0.131738 0 0)
(0.131738 0 0)
(0.131738 0 0)
(0.131738 0 0)
(0.131738 0 0)
(0.131738 0 0)
(0.131738 0 0)
(0.131738 0 0)
(0.131738 0 0)
(0.131738 0 0)
(0.131738 0 0)
(0.131738 0 0)
(0.131738 0 0)
(0.131738 0 0)
(0.131738 0 0)
(0.131738 0 0)
(0.131738 0 0)
(0.131738 0 0)
(0.131738 0 0)
(0.131738 0 0)
(0.131738 0 0)
(0.131738 0 0)
(0.131738 0 0)
(0.131738 0 0)
(0.131738 0 0)
(0.131738 0 0)
(0.131738 0 0)
(0.131738 0 0)
(0.131738 0 0)
(0.131738 0 0)
(0.131738 0 0)
(0.131738 0 0)
(0.131738 0 0)
(0.131738 0 0)
(0.131738 0 0)
(0.131738 0 0)
(0.131738 0 0)
(0.131738 0 0)
(0.131738 0 0)
(0.131738 0 0)
(0.131738 0 0)
(0.131738 0 0)
(0.131738 0 0)
(0.131738 0 0)
(0.131738 0 0)
(0.131738 0 0)
(0.131738 0 0)
(0.131738 0 0)
(0.131738 0 0)
(0.131738 0 0)
(0.131738 0 0)
(0.131738 0 0)
(0.131738 0 0)
(0.131738 0 0)
(0.131738 0 0)
(0.131738 0 0)
(0.131738 0 0)
(0.131738 0 0)
(0.131738 0 0)
(0.131738 0 0)
(0.131738 0 0)
(0.131738 0 0)
(0.131738 0 0)
(0.131738 0 0)
(0.131738 0 0)
(0.131738 0 0)
(0.131738 0 0)
(0.131738 0 0)
(0.131738 0 0)
(0.131738 0 0)
(0.131738 0 0)
(0.131738 0 0)
(0.131738 0 0)
(0.131738 0 0)
(0.131738 0 0)
(0.131738 0 0)
(0.131738 0 0)
(0.131738 0 0)
(0.131738 0 0)
(0.131738 0 0)
(0.131738 0 0)
(0.131738 0 0)
(0.131738 0 0)
(0.131738 0 0)
(0.131738 0 0)
(0.131738 0 0)
(0.131738 0 0)
(0.131738 0 0)
(0.131738 0 0)
(0.131738 0 0)
(0.131738 0 0)
(0.131738 0 0)
(0.131738 0 0)
(0.131738 0 0)
(0.131738 0 0)
(0.131738 0 0)
(0.131738 0 0)
(0.131738 0 0)
(0.131738 0 0)
(0.131738 0 0)
(0.131738 0 0)
(0.131738 0 0)
(0.131738 0 0)
(0.131738 0 0)
(0.131738 0 0)
(0.131738 0 0)
(0.131738 0 0)
(0.131738 0 0)
(0.131738 0 0)
(0.131738 0 0)
(0.131738 0 0)
(0.131738 0 0)
(0.131738 0 0)
(0.131738 0 0)
(0.131738 0 0)
(0.131738 0 0)
(0.131738 0 0)
(0.131738 0 0)
(0.131738 0 0)
(0.131738 0 0)
(0.131738 0 0)
(0.131738 0 0)
(0.131738 0 0)
(0.131738 0 0)
(0.131738 0 0)
(0.131738 0 0)
(0.131738 0 0)
(0.131738 0 0)
(0.131738 0 0)
(0.131738 0 0)
(0.131738 0 0)
(0.131738 0 0)
(0.131738 0 0)
(0.131738 0 0)
(0.131738 0 0)
(0.131738 0 0)
(0.131738 0 0)
(0.131738 0 0)
(0.131738 0 0)
(0.131738 0 0)
(0.131738 0 0)
(0.131738 0 0)
(0.131738 0 0)
(0.131738 0 0)
(0.131738 0 0)
(0.131738 0 0)
(0.131738 0 0)
(0.131738 0 0)
(0.131738 0 0)
(0.131738 0 0)
(0.131738 0 0)
(0.131738 0 0)
(0.131738 0 0)
(0.131738 0 0)
(0.131738 0 0)
(0.131738 0 0)
(0.131738 0 0)
(0.131738 0 0)
(0.131738 0 0)
(0.131738 0 0)
(0.131738 0 0)
(0.131738 0 0)
(0.131738 0 0)
(0.131738 0 0)
(0.131738 0 0)
(0.131738 0 0)
(0.131738 0 0)
(0.131738 0 0)
(0.131738 0 0)
(0.131738 0 0)
(0.131738 0 0)
(0.131738 0 0)
(0.131738 0 0)
(0.131738 0 0)
(0.131738 0 0)
(0.131738 0 0)
(0.131738 0 0)
(0.131738 0 0)
(0.131738 0 0)
(0.131738 0 0)
(0.131738 0 0)
(0.131738 0 0)
(0.131738 0 0)
(0.131738 0 0)
(0.131738 0 0)
(0.131738 0 0)
(0.131738 0 0)
(0.131738 0 0)
(0.131738 0 0)
(0.131738 0 0)
(0.131738 0 0)
(0.131738 0 0)
(0.131738 0 0)
(0.131738 0 0)
(0.131738 0 0)
(0.131738 0 0)
(0.131738 0 0)
(0.131738 0 0)
(0.131738 0 0)
(0.131738 0 0)
(0.131738 0 0)
(0.131738 0 0)
(0.131738 0 0)
(0.131738 0 0)
(0.131738 0 0)
(0.131738 0 0)
(0.131738 0 0)
(0.131738 0 0)
(0.131738 0 0)
(0.131738 0 0)
(0.131738 0 0)
(0.131738 0 0)
(0.131738 0 0)
(0.131738 0 0)
(0.131738 0 0)
(0.131738 0 0)
(0.131738 0 0)
(0.131738 0 0)
(0.131738 0 0)
(0.131738 0 0)
(0.131738 0 0)
(0.131738 0 0)
(0.131738 0 0)
(0.131738 0 0)
(0.131738 0 0)
(0.131738 0 0)
(0.131738 0 0)
(0.131738 0 0)
(0.131738 0 0)
(0.131738 0 0)
(0.131738 0 0)
(0.131738 0 0)
(0.131738 0 0)
(0.131738 0 0)
(0.131738 0 0)
(0.131738 0 0)
(0.131738 0 0)
(0.131738 0 0)
(0.131738 0 0)
(0.131738 0 0)
(0.131738 0 0)
(0.131738 0 0)
(0.131738 0 0)
(0.131738 0 0)
(0.131738 0 0)
(0.131738 0 0)
(0.131738 0 0)
(0.131738 0 0)
(0.131738 0 0)
(0.131738 0 0)
(0.131738 0 0)
(0.131738 0 0)
(0.131738 0 0)
(0.131738 0 0)
(0.131738 0 0)
(0.131738 0 0)
(0.131738 0 0)
(0.131738 0 0)
(0.131738 0 0)
(0.131738 0 0)
(0.131738 0 0)
(0.131738 0 0)
(0.131738 0 0)
(0.131738 0 0)
(0.131738 0 0)
(0.131738 0 0)
(0.131738 0 0)
(0.131738 0 0)
(0.131738 0 0)
(0.131738 0 0)
(0.131738 0 0)
(0.131738 0 0)
(0.131738 0 0)
(0.131738 0 0)
(0.131738 0 0)
(0.131738 0 0)
(0.131738 0 0)
(0.131738 0 0)
(0.131738 0 0)
(0.131738 0 0)
(0.131738 0 0)
(0.131738 0 0)
(0.131738 0 0)
(0.131738 0 0)
(0.131738 0 0)
(0.131738 0 0)
(0.131738 0 0)
(0.131738 0 0)
(0.131738 0 0)
(0.131738 0 0)
(0.131738 0 0)
(0.131738 0 0)
(0.131738 0 0)
(0.131738 0 0)
(0.131738 0 0)
(0.131738 0 0)
(0.131738 0 0)
(0.131738 0 0)
(0.131738 0 0)
(0.131738 0 0)
(0.131738 0 0)
(0.131738 0 0)
(0.131738 0 0)
(0.131738 0 0)
(0.131738 0 0)
(0.131738 0 0)
(0.131738 0 0)
(0.131738 0 0)
(0.131738 0 0)
(0.131738 0 0)
(0.131738 0 0)
(0.131738 0 0)
(0.131738 0 0)
(0.131738 0 0)
(0.131738 0 0)
(0.131738 0 0)
(0.131738 0 0)
(0.131738 0 0)
(0.131738 0 0)
(0.131738 0 0)
(0.131738 0 0)
(0.131738 0 0)
(0.131738 0 0)
(0.131738 0 0)
(0.131738 0 0)
(0.131738 0 0)
(0.131738 0 0)
(0.131738 0 0)
(0.131738 0 0)
(0.131738 0 0)
(0.131738 0 0)
(0.131738 0 0)
(0.131738 0 0)
(0.131738 0 0)
(0.131738 0 0)
(0.131738 0 0)
(0.131738 0 0)
(0.131738 0 0)
(0.131738 0 0)
(0.131738 0 0)
(0.131738 0 0)
(0.131738 0 0)
(0.131738 0 0)
(0.131738 0 0)
(0.131738 0 0)
(0.131738 0 0)
(0.131738 0 0)
(0.131738 0 0)
(0.131738 0 0)
(0.131738 0 0)
(0.131738 0 0)
(0.131738 0 0)
(0.131738 0 0)
(0.131738 0 0)
(0.131738 0 0)
(0.131738 0 0)
(0.131738 0 0)
(0.131738 0 0)
(0.131738 0 0)
(0.131738 0 0)
(0.131738 0 0)
(0.131738 0 0)
(0.131738 0 0)
(0.131738 0 0)
(0.131738 0 0)
(0.131738 0 0)
(0.131738 0 0)
(0.131738 0 0)
(0.131738 0 0)
(0.131738 0 0)
(0.131738 0 0)
(0.131738 0 0)
(0.131738 0 0)
(0.131738 0 0)
(0.131738 0 0)
(0.131738 0 0)
(0.131738 0 0)
(0.131738 0 0)
(0.131738 0 0)
(0.131738 0 0)
(0.131738 0 0)
(0.131738 0 0)
(0.131738 0 0)
(0.131738 0 0)
(0.131738 0 0)
(0.131738 0 0)
(0.131738 0 0)
(0.131738 0 0)
(0.131738 0 0)
(0.131738 0 0)
(0.131738 0 0)
(0.131738 0 0)
(0.131738 0 0)
(0.131738 0 0)
(0.131738 0 0)
(0.131738 0 0)
(0.131738 0 0)
(0.131738 0 0)
(0.131738 0 0)
(0.131738 0 0)
(0.131738 0 0)
(0.131738 0 0)
(0.131738 0 0)
(0.131738 0 0)
(0.131738 0 0)
(0.131738 0 0)
(0.131738 0 0)
(0.131738 0 0)
(0.131738 0 0)
(0.131738 0 0)
(0.131738 0 0)
(0.131738 0 0)
(0.131738 0 0)
(0.131738 0 0)
(0.131738 0 0)
(0.131738 0 0)
(0.131738 0 0)
(0.131738 0 0)
(0.131738 0 0)
(0.131738 0 0)
(0.131738 0 0)
(0.131738 0 0)
(0.131738 0 0)
(0.131738 0 0)
(0.131738 0 0)
(0.131738 0 0)
(0.131738 0 0)
(0.131738 0 0)
(0.131738 0 0)
(0.131738 0 0)
(0.131738 0 0)
(0.131738 0 0)
(0.131738 0 0)
(0.131738 0 0)
(0.131738 0 0)
(0.131738 0 0)
(0.131738 0 0)
(0.131738 0 0)
(0.131738 0 0)
(0.131738 0 0)
(0.131738 0 0)
(0.131738 0 0)
(0.131738 0 0)
(0.131738 0 0)
(0.131738 0 0)
(0.131738 0 0)
(0.131738 0 0)
(0.131738 0 0)
(0.131738 0 0)
(0.131738 0 0)
(0.131738 0 0)
(0.131738 0 0)
(0.131738 0 0)
(0.131738 0 0)
(0.131738 0 0)
(0.131738 0 0)
(0.131738 0 0)
(0.131738 0 0)
(0.131738 0 0)
(0.131738 0 0)
(0.131738 0 0)
(0.131738 0 0)
(0.131738 0 0)
(0.131738 0 0)
(0.131738 0 0)
(0.131738 0 0)
(0.131738 0 0)
(0.131738 0 0)
(0.131738 0 0)
(0.131738 0 0)
(0.131738 0 0)
(0.131738 0 0)
(0.131738 0 0)
(0.131738 0 0)
(0.131738 0 0)
(0.131738 0 0)
(0.131738 0 0)
(0.131738 0 0)
(0.131738 0 0)
(0.131738 0 0)
(0.131738 0 0)
(0.131738 0 0)
(0.131738 0 0)
(0.131738 0 0)
(0.131738 0 0)
(0.131738 0 0)
(0.131738 0 0)
(0.131738 0 0)
(0.131738 0 0)
(0.131738 0 0)
(0.131738 0 0)
(0.131737 0 0)
(0.131739 0 0)
(0.131737 0 0)
(0.131739 0 0)
(0.131737 0 0)
(0.131739 0 0)
(0.131737 0 0)
(0.131739 0 0)
(0.131737 0 0)
(0.131739 0 0)
(0.131737 0 0)
(0.131739 0 0)
(0.131737 0 0)
(0.131739 0 0)
(0.131737 0 0)
(0.131739 0 0)
(0.131736 0 0)
(0.13174 0 0)
(0.131736 0 0)
(0.13174 0 0)
(0.131736 0 0)
(0.13174 0 0)
(0.131736 0 0)
(0.13174 0 0)
(0.131735 0 0)
(0.131741 0 0)
(0.131735 0 0)
(0.131741 0 0)
(0.131735 0 0)
(0.131741 0 0)
(0.131734 0 0)
(0.131742 0 0)
(0.131734 0 0)
(0.131742 0 0)
(0.131733 0 0)
(0.131743 0 0)
(0.131732 0 0)
(0.131743 0 0)
(0.131732 0 0)
(0.131744 0 0)
(0.131731 0 0)
(0.131744 0 0)
(0.13173 0 0)
(0.131745 0 0)
(0.131729 0 0)
(0.131745 0 0)
(0.131729 0 0)
(0.131746 0 0)
(0.131728 0 0)
(0.131747 0 0)
(0.131726 0 0)
(0.131748 0 0)
(0.131725 0 0)
(0.131748 0 0)
(0.131724 0 0)
(0.131749 0 0)
(0.131723 0 0)
(0.13175 0 0)
(0.131721 0 0)
(0.131751 0 0)
(0.13172 0 0)
(0.131752 0 0)
(0.131718 0 0)
(0.131753 0 0)
(0.131716 0 0)
(0.131754 0 0)
(0.131715 0 0)
(0.131755 0 0)
(0.131713 0 0)
(0.131756 0 0)
(0.13171 0 0)
(0.131757 0 0)
(0.131708 0 0)
(0.131758 0 0)
(0.131706 0 0)
(0.131759 0 0)
(0.131704 0 0)
)
;

boundaryField
{
    topWall
    {
        type            empty;
    }
    bottomWall
    {
        type            empty;
    }
    leftAndRight_half1
    {
        type            cyclic;
    }
    leftAndRight_half0
    {
        type            cyclic;
    }
    frontAndBack
    {
        type            empty;
    }
}


// ************************************************************************* //
