/*--------------------------------*- C++ -*----------------------------------*\
  =========                 |
  \\      /  F ield         | OpenFOAM: The Open Source CFD Toolbox
   \\    /   O peration     | Website:  https://openfoam.org
    \\  /    A nd           | Version:  9
     \\/     M anipulation  |
\*---------------------------------------------------------------------------*/
FoamFile
{
    format      ascii;
    class       volVectorField;
    location    "1.85";
    object      U;
}
// * * * * * * * * * * * * * * * * * * * * * * * * * * * * * * * * * * * * * //

dimensions      [0 1 -1 0 0 0 0];

internalField   nonuniform List<vector> 
1000
(
(0.131753 0 0)
(0.131715 0 0)
(0.131754 0 0)
(0.131712 0 0)
(0.131755 0 0)
(0.131709 0 0)
(0.131757 0 0)
(0.131706 0 0)
(0.131758 0 0)
(0.131703 0 0)
(0.131759 0 0)
(0.1317 0 0)
(0.13176 0 0)
(0.131696 0 0)
(0.131761 0 0)
(0.131692 0 0)
(0.131762 0 0)
(0.131688 0 0)
(0.131763 0 0)
(0.131684 0 0)
(0.131764 0 0)
(0.131679 0 0)
(0.131765 0 0)
(0.131675 0 0)
(0.131765 0 0)
(0.13167 0 0)
(0.131766 0 0)
(0.131665 0 0)
(0.131766 0 0)
(0.131659 0 0)
(0.131766 0 0)
(0.131654 0 0)
(0.131765 0 0)
(0.131648 0 0)
(0.131765 0 0)
(0.131642 0 0)
(0.131764 0 0)
(0.131637 0 0)
(0.131762 0 0)
(0.131631 0 0)
(0.131761 0 0)
(0.131625 0 0)
(0.131759 0 0)
(0.131619 0 0)
(0.131757 0 0)
(0.131614 0 0)
(0.131755 0 0)
(0.131608 0 0)
(0.131752 0 0)
(0.131603 0 0)
(0.131749 0 0)
(0.131598 0 0)
(0.131746 0 0)
(0.131593 0 0)
(0.131743 0 0)
(0.131589 0 0)
(0.13174 0 0)
(0.131586 0 0)
(0.131737 0 0)
(0.131583 0 0)
(0.131734 0 0)
(0.131581 0 0)
(0.131732 0 0)
(0.13158 0 0)
(0.13173 0 0)
(0.13158 0 0)
(0.131728 0 0)
(0.131582 0 0)
(0.131727 0 0)
(0.131584 0 0)
(0.131727 0 0)
(0.131588 0 0)
(0.131728 0 0)
(0.131594 0 0)
(0.13173 0 0)
(0.131601 0 0)
(0.131734 0 0)
(0.13161 0 0)
(0.131739 0 0)
(0.131622 0 0)
(0.131746 0 0)
(0.131635 0 0)
(0.131755 0 0)
(0.13165 0 0)
(0.131769 0 0)
(0.131665 0 0)
(0.131789 0 0)
(0.131676 0 0)
(0.131821 0 0)
(0.131678 0 0)
(0.131874 0 0)
(0.131665 0 0)
(0.131951 0 0)
(0.131646 0 0)
(0.13204 0 0)
(0.131662 0 0)
(0.132106 0 0)
(0.131761 0 0)
(0.132139 0 0)
(0.131936 0 0)
(0.132199 0 0)
(0.132116 0 0)
(0.132308 0 0)
(0.132269 0 0)
(0.132432 0 0)
(0.132397 0 0)
(0.13254 0 0)
(0.132501 0 0)
(0.132625 0 0)
(0.132582 0 0)
(0.132689 0 0)
(0.132646 0 0)
(0.13274 0 0)
(0.132701 0 0)
(0.132784 0 0)
(0.132751 0 0)
(0.132827 0 0)
(0.132801 0 0)
(0.13287 0 0)
(0.132852 0 0)
(0.132916 0 0)
(0.132905 0 0)
(0.132964 0 0)
(0.132959 0 0)
(0.133015 0 0)
(0.133016 0 0)
(0.133068 0 0)
(0.133074 0 0)
(0.133123 0 0)
(0.133134 0 0)
(0.13318 0 0)
(0.133196 0 0)
(0.133238 0 0)
(0.133259 0 0)
(0.133299 0 0)
(0.133323 0 0)
(0.13336 0 0)
(0.133387 0 0)
(0.133422 0 0)
(0.133452 0 0)
(0.133486 0 0)
(0.133517 0 0)
(0.133549 0 0)
(0.133583 0 0)
(0.133613 0 0)
(0.133648 0 0)
(0.133677 0 0)
(0.133713 0 0)
(0.13374 0 0)
(0.133777 0 0)
(0.133803 0 0)
(0.13384 0 0)
(0.133864 0 0)
(0.133902 0 0)
(0.133925 0 0)
(0.133962 0 0)
(0.133985 0 0)
(0.134021 0 0)
(0.134042 0 0)
(0.134078 0 0)
(0.134098 0 0)
(0.134133 0 0)
(0.134152 0 0)
(0.134186 0 0)
(0.134204 0 0)
(0.134237 0 0)
(0.134253 0 0)
(0.134284 0 0)
(0.1343 0 0)
(0.134329 0 0)
(0.134344 0 0)
(0.134372 0 0)
(0.134384 0 0)
(0.13441 0 0)
(0.134422 0 0)
(0.134446 0 0)
(0.134456 0 0)
(0.134478 0 0)
(0.134487 0 0)
(0.134507 0 0)
(0.134514 0 0)
(0.134532 0 0)
(0.134538 0 0)
(0.134554 0 0)
(0.134557 0 0)
(0.134571 0 0)
(0.134572 0 0)
(0.134585 0 0)
(0.134582 0 0)
(0.134596 0 0)
(0.134588 0 0)
(0.134602 0 0)
(0.13459 0 0)
(0.134602 0 0)
(0.13459 0 0)
(0.134597 0 0)
(0.134587 0 0)
(0.13459 0 0)
(0.134583 0 0)
(0.134586 0 0)
(0.134581 0 0)
(0.134585 0 0)
(0.134576 0 0)
(0.134563 0 0)
(0.13452 0 0)
(0.134458 0 0)
(0.134364 0 0)
(0.134264 0 0)
(0.134158 0 0)
(0.134069 0 0)
(0.133991 0 0)
(0.133935 0 0)
(0.13389 0 0)
(0.133859 0 0)
(0.133831 0 0)
(0.133812 0 0)
(0.133791 0 0)
(0.133775 0 0)
(0.133756 0 0)
(0.133739 0 0)
(0.13372 0 0)
(0.133702 0 0)
(0.133681 0 0)
(0.133662 0 0)
(0.133639 0 0)
(0.133619 0 0)
(0.133595 0 0)
(0.133573 0 0)
(0.133548 0 0)
(0.133524 0 0)
(0.133499 0 0)
(0.133474 0 0)
(0.133447 0 0)
(0.133421 0 0)
(0.133393 0 0)
(0.133366 0 0)
(0.133338 0 0)
(0.13331 0 0)
(0.133281 0 0)
(0.133252 0 0)
(0.133223 0 0)
(0.133194 0 0)
(0.133164 0 0)
(0.133134 0 0)
(0.133104 0 0)
(0.133074 0 0)
(0.133043 0 0)
(0.133013 0 0)
(0.132983 0 0)
(0.132953 0 0)
(0.132922 0 0)
(0.132892 0 0)
(0.132862 0 0)
(0.132832 0 0)
(0.132803 0 0)
(0.132773 0 0)
(0.132744 0 0)
(0.132714 0 0)
(0.132686 0 0)
(0.132657 0 0)
(0.132629 0 0)
(0.132601 0 0)
(0.132573 0 0)
(0.132546 0 0)
(0.132519 0 0)
(0.132493 0 0)
(0.132467 0 0)
(0.132442 0 0)
(0.132417 0 0)
(0.132392 0 0)
(0.132368 0 0)
(0.132344 0 0)
(0.132321 0 0)
(0.132299 0 0)
(0.132277 0 0)
(0.132255 0 0)
(0.132234 0 0)
(0.132214 0 0)
(0.132194 0 0)
(0.132175 0 0)
(0.132156 0 0)
(0.132138 0 0)
(0.13212 0 0)
(0.132103 0 0)
(0.132086 0 0)
(0.13207 0 0)
(0.132054 0 0)
(0.132039 0 0)
(0.132025 0 0)
(0.132011 0 0)
(0.131997 0 0)
(0.131984 0 0)
(0.131972 0 0)
(0.13196 0 0)
(0.131948 0 0)
(0.131937 0 0)
(0.131927 0 0)
(0.131916 0 0)
(0.131907 0 0)
(0.131897 0 0)
(0.131888 0 0)
(0.13188 0 0)
(0.131872 0 0)
(0.131864 0 0)
(0.131857 0 0)
(0.13185 0 0)
(0.131843 0 0)
(0.131837 0 0)
(0.131831 0 0)
(0.131825 0 0)
(0.131819 0 0)
(0.131814 0 0)
(0.131809 0 0)
(0.131805 0 0)
(0.1318 0 0)
(0.131796 0 0)
(0.131792 0 0)
(0.131789 0 0)
(0.131785 0 0)
(0.131782 0 0)
(0.131779 0 0)
(0.131776 0 0)
(0.131773 0 0)
(0.131771 0 0)
(0.131768 0 0)
(0.131766 0 0)
(0.131764 0 0)
(0.131762 0 0)
(0.13176 0 0)
(0.131759 0 0)
(0.131757 0 0)
(0.131756 0 0)
(0.131754 0 0)
(0.131753 0 0)
(0.131752 0 0)
(0.131751 0 0)
(0.13175 0 0)
(0.131749 0 0)
(0.131748 0 0)
(0.131747 0 0)
(0.131746 0 0)
(0.131746 0 0)
(0.131745 0 0)
(0.131744 0 0)
(0.131744 0 0)
(0.131743 0 0)
(0.131743 0 0)
(0.131742 0 0)
(0.131742 0 0)
(0.131742 0 0)
(0.131741 0 0)
(0.131741 0 0)
(0.131741 0 0)
(0.131741 0 0)
(0.13174 0 0)
(0.13174 0 0)
(0.13174 0 0)
(0.13174 0 0)
(0.13174 0 0)
(0.131739 0 0)
(0.131739 0 0)
(0.131739 0 0)
(0.131739 0 0)
(0.131739 0 0)
(0.131739 0 0)
(0.131739 0 0)
(0.131739 0 0)
(0.131739 0 0)
(0.131739 0 0)
(0.131738 0 0)
(0.131738 0 0)
(0.131738 0 0)
(0.131738 0 0)
(0.131738 0 0)
(0.131738 0 0)
(0.131738 0 0)
(0.131738 0 0)
(0.131738 0 0)
(0.131738 0 0)
(0.131738 0 0)
(0.131738 0 0)
(0.131738 0 0)
(0.131738 0 0)
(0.131738 0 0)
(0.131738 0 0)
(0.131738 0 0)
(0.131738 0 0)
(0.131738 0 0)
(0.131738 0 0)
(0.131738 0 0)
(0.131738 0 0)
(0.131738 0 0)
(0.131738 0 0)
(0.131738 0 0)
(0.131738 0 0)
(0.131738 0 0)
(0.131738 0 0)
(0.131738 0 0)
(0.131738 0 0)
(0.131738 0 0)
(0.131738 0 0)
(0.131738 0 0)
(0.131738 0 0)
(0.131738 0 0)
(0.131738 0 0)
(0.131738 0 0)
(0.131738 0 0)
(0.131738 0 0)
(0.131738 0 0)
(0.131738 0 0)
(0.131738 0 0)
(0.131738 0 0)
(0.131738 0 0)
(0.131738 0 0)
(0.131738 0 0)
(0.131738 0 0)
(0.131738 0 0)
(0.131738 0 0)
(0.131738 0 0)
(0.131738 0 0)
(0.131738 0 0)
(0.131738 0 0)
(0.131738 0 0)
(0.131738 0 0)
(0.131738 0 0)
(0.131738 0 0)
(0.131738 0 0)
(0.131738 0 0)
(0.131738 0 0)
(0.131738 0 0)
(0.131738 0 0)
(0.131738 0 0)
(0.131738 0 0)
(0.131738 0 0)
(0.131738 0 0)
(0.131738 0 0)
(0.131738 0 0)
(0.131738 0 0)
(0.131738 0 0)
(0.131738 0 0)
(0.131738 0 0)
(0.131738 0 0)
(0.131738 0 0)
(0.131738 0 0)
(0.131738 0 0)
(0.131738 0 0)
(0.131738 0 0)
(0.131738 0 0)
(0.131738 0 0)
(0.131738 0 0)
(0.131738 0 0)
(0.131738 0 0)
(0.131738 0 0)
(0.131738 0 0)
(0.131738 0 0)
(0.131738 0 0)
(0.131738 0 0)
(0.131738 0 0)
(0.131738 0 0)
(0.131738 0 0)
(0.131738 0 0)
(0.131738 0 0)
(0.131738 0 0)
(0.131738 0 0)
(0.131738 0 0)
(0.131738 0 0)
(0.131738 0 0)
(0.131738 0 0)
(0.131738 0 0)
(0.131738 0 0)
(0.131738 0 0)
(0.131738 0 0)
(0.131738 0 0)
(0.131738 0 0)
(0.131738 0 0)
(0.131738 0 0)
(0.131738 0 0)
(0.131738 0 0)
(0.131738 0 0)
(0.131738 0 0)
(0.131738 0 0)
(0.131738 0 0)
(0.131738 0 0)
(0.131738 0 0)
(0.131738 0 0)
(0.131738 0 0)
(0.131738 0 0)
(0.131738 0 0)
(0.131738 0 0)
(0.131738 0 0)
(0.131738 0 0)
(0.131738 0 0)
(0.131738 0 0)
(0.131738 0 0)
(0.131738 0 0)
(0.131738 0 0)
(0.131738 0 0)
(0.131738 0 0)
(0.131738 0 0)
(0.131738 0 0)
(0.131738 0 0)
(0.131738 0 0)
(0.131738 0 0)
(0.131738 0 0)
(0.131738 0 0)
(0.131738 0 0)
(0.131738 0 0)
(0.131738 0 0)
(0.131738 0 0)
(0.131738 0 0)
(0.131738 0 0)
(0.131738 0 0)
(0.131738 0 0)
(0.131738 0 0)
(0.131738 0 0)
(0.131738 0 0)
(0.131738 0 0)
(0.131738 0 0)
(0.131738 0 0)
(0.131738 0 0)
(0.131738 0 0)
(0.131738 0 0)
(0.131738 0 0)
(0.131738 0 0)
(0.131738 0 0)
(0.131738 0 0)
(0.131738 0 0)
(0.131738 0 0)
(0.131738 0 0)
(0.131738 0 0)
(0.131738 0 0)
(0.131738 0 0)
(0.131738 0 0)
(0.131738 0 0)
(0.131738 0 0)
(0.131738 0 0)
(0.131738 0 0)
(0.131738 0 0)
(0.131738 0 0)
(0.131738 0 0)
(0.131738 0 0)
(0.131738 0 0)
(0.131738 0 0)
(0.131738 0 0)
(0.131738 0 0)
(0.131738 0 0)
(0.131738 0 0)
(0.131738 0 0)
(0.131738 0 0)
(0.131738 0 0)
(0.131738 0 0)
(0.131738 0 0)
(0.131738 0 0)
(0.131738 0 0)
(0.131738 0 0)
(0.131738 0 0)
(0.131738 0 0)
(0.131738 0 0)
(0.131738 0 0)
(0.131738 0 0)
(0.131738 0 0)
(0.131738 0 0)
(0.131738 0 0)
(0.131738 0 0)
(0.131738 0 0)
(0.131738 0 0)
(0.131738 0 0)
(0.131738 0 0)
(0.131738 0 0)
(0.131738 0 0)
(0.131738 0 0)
(0.131738 0 0)
(0.131738 0 0)
(0.131738 0 0)
(0.131738 0 0)
(0.131738 0 0)
(0.131738 0 0)
(0.131738 0 0)
(0.131738 0 0)
(0.131738 0 0)
(0.131738 0 0)
(0.131738 0 0)
(0.131738 0 0)
(0.131738 0 0)
(0.131738 0 0)
(0.131738 0 0)
(0.131738 0 0)
(0.131738 0 0)
(0.131738 0 0)
(0.131738 0 0)
(0.131738 0 0)
(0.131738 0 0)
(0.131738 0 0)
(0.131738 0 0)
(0.131738 0 0)
(0.131738 0 0)
(0.131738 0 0)
(0.131738 0 0)
(0.131738 0 0)
(0.131738 0 0)
(0.131738 0 0)
(0.131738 0 0)
(0.131738 0 0)
(0.131738 0 0)
(0.131738 0 0)
(0.131738 0 0)
(0.131738 0 0)
(0.131738 0 0)
(0.131738 0 0)
(0.131738 0 0)
(0.131738 0 0)
(0.131738 0 0)
(0.131738 0 0)
(0.131738 0 0)
(0.131738 0 0)
(0.131738 0 0)
(0.131738 0 0)
(0.131738 0 0)
(0.131738 0 0)
(0.131738 0 0)
(0.131738 0 0)
(0.131738 0 0)
(0.131738 0 0)
(0.131738 0 0)
(0.131738 0 0)
(0.131738 0 0)
(0.131738 0 0)
(0.131738 0 0)
(0.131738 0 0)
(0.131738 0 0)
(0.131738 0 0)
(0.131738 0 0)
(0.131738 0 0)
(0.131738 0 0)
(0.131738 0 0)
(0.131738 0 0)
(0.131738 0 0)
(0.131738 0 0)
(0.131738 0 0)
(0.131738 0 0)
(0.131738 0 0)
(0.131738 0 0)
(0.131738 0 0)
(0.131738 0 0)
(0.131738 0 0)
(0.131738 0 0)
(0.131738 0 0)
(0.131738 0 0)
(0.131738 0 0)
(0.131738 0 0)
(0.131738 0 0)
(0.131738 0 0)
(0.131738 0 0)
(0.131738 0 0)
(0.131738 0 0)
(0.131738 0 0)
(0.131738 0 0)
(0.131738 0 0)
(0.131738 0 0)
(0.131738 0 0)
(0.131738 0 0)
(0.131738 0 0)
(0.131738 0 0)
(0.131738 0 0)
(0.131738 0 0)
(0.131738 0 0)
(0.131738 0 0)
(0.131738 0 0)
(0.131738 0 0)
(0.131738 0 0)
(0.131738 0 0)
(0.131738 0 0)
(0.131738 0 0)
(0.131738 0 0)
(0.131738 0 0)
(0.131738 0 0)
(0.131738 0 0)
(0.131738 0 0)
(0.131738 0 0)
(0.131738 0 0)
(0.131738 0 0)
(0.131738 0 0)
(0.131738 0 0)
(0.131738 0 0)
(0.131738 0 0)
(0.131738 0 0)
(0.131738 0 0)
(0.131738 0 0)
(0.131738 0 0)
(0.131738 0 0)
(0.131738 0 0)
(0.131738 0 0)
(0.131738 0 0)
(0.131738 0 0)
(0.131738 0 0)
(0.131738 0 0)
(0.131738 0 0)
(0.131738 0 0)
(0.131738 0 0)
(0.131738 0 0)
(0.131738 0 0)
(0.131738 0 0)
(0.131738 0 0)
(0.131738 0 0)
(0.131738 0 0)
(0.131738 0 0)
(0.131738 0 0)
(0.131738 0 0)
(0.131738 0 0)
(0.131738 0 0)
(0.131738 0 0)
(0.131738 0 0)
(0.131738 0 0)
(0.131738 0 0)
(0.131738 0 0)
(0.131738 0 0)
(0.131738 0 0)
(0.131738 0 0)
(0.131738 0 0)
(0.131738 0 0)
(0.131738 0 0)
(0.131738 0 0)
(0.131738 0 0)
(0.131738 0 0)
(0.131738 0 0)
(0.131738 0 0)
(0.131738 0 0)
(0.131738 0 0)
(0.131738 0 0)
(0.131738 0 0)
(0.131738 0 0)
(0.131738 0 0)
(0.131738 0 0)
(0.131738 0 0)
(0.131738 0 0)
(0.131738 0 0)
(0.131738 0 0)
(0.131738 0 0)
(0.131738 0 0)
(0.131738 0 0)
(0.131738 0 0)
(0.131738 0 0)
(0.131738 0 0)
(0.131738 0 0)
(0.131738 0 0)
(0.131738 0 0)
(0.131738 0 0)
(0.131738 0 0)
(0.131738 0 0)
(0.131738 0 0)
(0.131738 0 0)
(0.131738 0 0)
(0.131738 0 0)
(0.131738 0 0)
(0.131738 0 0)
(0.131738 0 0)
(0.131738 0 0)
(0.131738 0 0)
(0.131738 0 0)
(0.131738 0 0)
(0.131738 0 0)
(0.131738 0 0)
(0.131738 0 0)
(0.131738 0 0)
(0.131738 0 0)
(0.131738 0 0)
(0.131738 0 0)
(0.131738 0 0)
(0.131738 0 0)
(0.131738 0 0)
(0.131738 0 0)
(0.131738 0 0)
(0.131738 0 0)
(0.131738 0 0)
(0.131738 0 0)
(0.131738 0 0)
(0.131738 0 0)
(0.131738 0 0)
(0.131738 0 0)
(0.131738 0 0)
(0.131738 0 0)
(0.131738 0 0)
(0.131738 0 0)
(0.131738 0 0)
(0.131738 0 0)
(0.131738 0 0)
(0.131738 0 0)
(0.131738 0 0)
(0.131738 0 0)
(0.131738 0 0)
(0.131738 0 0)
(0.131738 0 0)
(0.131738 0 0)
(0.131738 0 0)
(0.131738 0 0)
(0.131738 0 0)
(0.131738 0 0)
(0.131738 0 0)
(0.131738 0 0)
(0.131738 0 0)
(0.131738 0 0)
(0.131738 0 0)
(0.131738 0 0)
(0.131738 0 0)
(0.131738 0 0)
(0.131738 0 0)
(0.131738 0 0)
(0.131738 0 0)
(0.131738 0 0)
(0.131738 0 0)
(0.131738 0 0)
(0.131738 0 0)
(0.131738 0 0)
(0.131738 0 0)
(0.131738 0 0)
(0.131738 0 0)
(0.131738 0 0)
(0.131738 0 0)
(0.131738 0 0)
(0.131738 0 0)
(0.131738 0 0)
(0.131738 0 0)
(0.131738 0 0)
(0.131738 0 0)
(0.131738 0 0)
(0.131738 0 0)
(0.131738 0 0)
(0.131738 0 0)
(0.131738 0 0)
(0.131738 0 0)
(0.131738 0 0)
(0.131738 0 0)
(0.131738 0 0)
(0.131738 0 0)
(0.131738 0 0)
(0.131738 0 0)
(0.131738 0 0)
(0.131738 0 0)
(0.131738 0 0)
(0.131738 0 0)
(0.131738 0 0)
(0.131738 0 0)
(0.131738 0 0)
(0.131738 0 0)
(0.131738 0 0)
(0.131738 0 0)
(0.131738 0 0)
(0.131738 0 0)
(0.131738 0 0)
(0.131738 0 0)
(0.131738 0 0)
(0.131738 0 0)
(0.131738 0 0)
(0.131738 0 0)
(0.131738 0 0)
(0.131738 0 0)
(0.131738 0 0)
(0.131738 0 0)
(0.131738 0 0)
(0.131738 0 0)
(0.131738 0 0)
(0.131738 0 0)
(0.131738 0 0)
(0.131738 0 0)
(0.131738 0 0)
(0.131738 0 0)
(0.131738 0 0)
(0.131738 0 0)
(0.131738 0 0)
(0.131738 0 0)
(0.131738 0 0)
(0.131738 0 0)
(0.131738 0 0)
(0.131738 0 0)
(0.131738 0 0)
(0.131738 0 0)
(0.131738 0 0)
(0.131738 0 0)
(0.131738 0 0)
(0.131738 0 0)
(0.131738 0 0)
(0.131738 0 0)
(0.131738 0 0)
(0.131738 0 0)
(0.131738 0 0)
(0.131738 0 0)
(0.131738 0 0)
(0.131738 0 0)
(0.131738 0 0)
(0.131738 0 0)
(0.131738 0 0)
(0.131738 0 0)
(0.131738 0 0)
(0.131738 0 0)
(0.131738 0 0)
(0.131738 0 0)
(0.131738 0 0)
(0.131738 0 0)
(0.131738 0 0)
(0.131738 0 0)
(0.131738 0 0)
(0.131738 0 0)
(0.131738 0 0)
(0.131738 0 0)
(0.131738 0 0)
(0.131738 0 0)
(0.131738 0 0)
(0.131738 0 0)
(0.131738 0 0)
(0.131738 0 0)
(0.131738 0 0)
(0.131738 0 0)
(0.131738 0 0)
(0.131738 0 0)
(0.131738 0 0)
(0.131738 0 0)
(0.131738 0 0)
(0.131738 0 0)
(0.131738 0 0)
(0.131738 0 0)
(0.131738 0 0)
(0.131738 0 0)
(0.131738 0 0)
(0.131738 0 0)
(0.131738 0 0)
(0.131738 0 0)
(0.131738 0 0)
(0.131738 0 0)
(0.131738 0 0)
(0.131738 0 0)
(0.131738 0 0)
(0.131738 0 0)
(0.131738 0 0)
(0.131738 0 0)
(0.131738 0 0)
(0.131738 0 0)
(0.131738 0 0)
(0.131738 0 0)
(0.131738 0 0)
(0.131738 0 0)
(0.131738 0 0)
(0.131738 0 0)
(0.131738 0 0)
(0.131738 0 0)
(0.131738 0 0)
(0.131738 0 0)
(0.131738 0 0)
(0.131738 0 0)
(0.131738 0 0)
(0.131737 0 0)
(0.131739 0 0)
(0.131737 0 0)
(0.131739 0 0)
(0.131737 0 0)
(0.131739 0 0)
(0.131737 0 0)
(0.131739 0 0)
(0.131737 0 0)
(0.131739 0 0)
(0.131737 0 0)
(0.131739 0 0)
(0.131736 0 0)
(0.13174 0 0)
(0.131736 0 0)
(0.13174 0 0)
(0.131736 0 0)
(0.13174 0 0)
(0.131735 0 0)
(0.13174 0 0)
(0.131735 0 0)
(0.131741 0 0)
(0.131735 0 0)
(0.131741 0 0)
(0.131734 0 0)
(0.131742 0 0)
(0.131733 0 0)
(0.131742 0 0)
(0.131733 0 0)
(0.131743 0 0)
(0.131732 0 0)
(0.131743 0 0)
(0.131731 0 0)
(0.131744 0 0)
(0.13173 0 0)
(0.131745 0 0)
(0.131729 0 0)
(0.131746 0 0)
(0.131728 0 0)
(0.131746 0 0)
(0.131726 0 0)
(0.131747 0 0)
(0.131725 0 0)
(0.131748 0 0)
(0.131723 0 0)
(0.131749 0 0)
(0.131721 0 0)
(0.13175 0 0)
(0.131719 0 0)
(0.131752 0 0)
(0.131717 0 0)
)
;

boundaryField
{
    topWall
    {
        type            empty;
    }
    bottomWall
    {
        type            empty;
    }
    leftAndRight_half1
    {
        type            cyclic;
    }
    leftAndRight_half0
    {
        type            cyclic;
    }
    frontAndBack
    {
        type            empty;
    }
}


// ************************************************************************* //
