/*--------------------------------*- C++ -*----------------------------------*\
  =========                 |
  \\      /  F ield         | OpenFOAM: The Open Source CFD Toolbox
   \\    /   O peration     | Website:  https://openfoam.org
    \\  /    A nd           | Version:  9
     \\/     M anipulation  |
\*---------------------------------------------------------------------------*/
FoamFile
{
    format      ascii;
    class       volVectorField;
    location    "4";
    object      U;
}
// * * * * * * * * * * * * * * * * * * * * * * * * * * * * * * * * * * * * * //

dimensions      [0 1 -1 0 0 0 0];

internalField   nonuniform List<vector> 
1000
(
(0.131768 0 0)
(0.131693 0 0)
(0.131768 0 0)
(0.131691 0 0)
(0.131769 0 0)
(0.13169 0 0)
(0.131769 0 0)
(0.131689 0 0)
(0.13177 0 0)
(0.131688 0 0)
(0.13177 0 0)
(0.131687 0 0)
(0.131771 0 0)
(0.131685 0 0)
(0.131771 0 0)
(0.131685 0 0)
(0.131771 0 0)
(0.131684 0 0)
(0.131772 0 0)
(0.131683 0 0)
(0.131772 0 0)
(0.131682 0 0)
(0.131772 0 0)
(0.131682 0 0)
(0.131773 0 0)
(0.131682 0 0)
(0.131773 0 0)
(0.131682 0 0)
(0.131774 0 0)
(0.131682 0 0)
(0.131774 0 0)
(0.131682 0 0)
(0.131775 0 0)
(0.131683 0 0)
(0.131776 0 0)
(0.131684 0 0)
(0.131777 0 0)
(0.131685 0 0)
(0.131778 0 0)
(0.131686 0 0)
(0.131779 0 0)
(0.131688 0 0)
(0.131781 0 0)
(0.131691 0 0)
(0.131783 0 0)
(0.131693 0 0)
(0.131785 0 0)
(0.131697 0 0)
(0.131787 0 0)
(0.1317 0 0)
(0.13179 0 0)
(0.131705 0 0)
(0.131793 0 0)
(0.131709 0 0)
(0.131797 0 0)
(0.131715 0 0)
(0.131801 0 0)
(0.131721 0 0)
(0.131805 0 0)
(0.131727 0 0)
(0.131811 0 0)
(0.131735 0 0)
(0.131817 0 0)
(0.131743 0 0)
(0.131823 0 0)
(0.131752 0 0)
(0.13183 0 0)
(0.131762 0 0)
(0.131839 0 0)
(0.131773 0 0)
(0.131848 0 0)
(0.131785 0 0)
(0.131858 0 0)
(0.131798 0 0)
(0.131869 0 0)
(0.131812 0 0)
(0.131881 0 0)
(0.131827 0 0)
(0.131894 0 0)
(0.131843 0 0)
(0.131908 0 0)
(0.131861 0 0)
(0.131925 0 0)
(0.131878 0 0)
(0.131944 0 0)
(0.131895 0 0)
(0.131968 0 0)
(0.131907 0 0)
(0.132004 0 0)
(0.131907 0 0)
(0.13206 0 0)
(0.131892 0 0)
(0.132138 0 0)
(0.13187 0 0)
(0.132226 0 0)
(0.131879 0 0)
(0.13229 0 0)
(0.131971 0 0)
(0.13232 0 0)
(0.132137 0 0)
(0.132373 0 0)
(0.132306 0 0)
(0.132475 0 0)
(0.132446 0 0)
(0.132589 0 0)
(0.13256 0 0)
(0.132686 0 0)
(0.132647 0 0)
(0.132756 0 0)
(0.13271 0 0)
(0.132805 0 0)
(0.132755 0 0)
(0.132838 0 0)
(0.132788 0 0)
(0.132863 0 0)
(0.132815 0 0)
(0.132885 0 0)
(0.132839 0 0)
(0.132905 0 0)
(0.132864 0 0)
(0.132926 0 0)
(0.132888 0 0)
(0.132947 0 0)
(0.132914 0 0)
(0.13297 0 0)
(0.13294 0 0)
(0.132993 0 0)
(0.132968 0 0)
(0.133018 0 0)
(0.132996 0 0)
(0.133043 0 0)
(0.133024 0 0)
(0.133069 0 0)
(0.133054 0 0)
(0.133097 0 0)
(0.133084 0 0)
(0.133125 0 0)
(0.133115 0 0)
(0.133153 0 0)
(0.133146 0 0)
(0.133183 0 0)
(0.133178 0 0)
(0.133213 0 0)
(0.13321 0 0)
(0.133243 0 0)
(0.133242 0 0)
(0.133274 0 0)
(0.133275 0 0)
(0.133305 0 0)
(0.133308 0 0)
(0.133337 0 0)
(0.133341 0 0)
(0.133368 0 0)
(0.133374 0 0)
(0.1334 0 0)
(0.133407 0 0)
(0.133432 0 0)
(0.13344 0 0)
(0.133463 0 0)
(0.133472 0 0)
(0.133495 0 0)
(0.133504 0 0)
(0.133526 0 0)
(0.133536 0 0)
(0.133556 0 0)
(0.133567 0 0)
(0.133586 0 0)
(0.133597 0 0)
(0.133616 0 0)
(0.133627 0 0)
(0.133644 0 0)
(0.133656 0 0)
(0.133672 0 0)
(0.133683 0 0)
(0.133698 0 0)
(0.13371 0 0)
(0.133724 0 0)
(0.133735 0 0)
(0.133748 0 0)
(0.133759 0 0)
(0.133771 0 0)
(0.133781 0 0)
(0.133792 0 0)
(0.133802 0 0)
(0.133811 0 0)
(0.133822 0 0)
(0.133829 0 0)
(0.13384 0 0)
(0.133844 0 0)
(0.133857 0 0)
(0.133857 0 0)
(0.133872 0 0)
(0.133868 0 0)
(0.133883 0 0)
(0.13388 0 0)
(0.133891 0 0)
(0.133891 0 0)
(0.1339 0 0)
(0.133902 0 0)
(0.133913 0 0)
(0.133919 0 0)
(0.133932 0 0)
(0.133935 0 0)
(0.133932 0 0)
(0.133901 0 0)
(0.133851 0 0)
(0.13377 0 0)
(0.133683 0 0)
(0.13359 0 0)
(0.133515 0 0)
(0.133452 0 0)
(0.133412 0 0)
(0.133381 0 0)
(0.133367 0 0)
(0.133356 0 0)
(0.133353 0 0)
(0.133349 0 0)
(0.133351 0 0)
(0.13335 0 0)
(0.133352 0 0)
(0.13335 0 0)
(0.133352 0 0)
(0.13335 0 0)
(0.13335 0 0)
(0.133348 0 0)
(0.133347 0 0)
(0.133343 0 0)
(0.133342 0 0)
(0.133338 0 0)
(0.133335 0 0)
(0.13333 0 0)
(0.133326 0 0)
(0.13332 0 0)
(0.133316 0 0)
(0.133309 0 0)
(0.133303 0 0)
(0.133296 0 0)
(0.133289 0 0)
(0.133281 0 0)
(0.133274 0 0)
(0.133264 0 0)
(0.133257 0 0)
(0.133246 0 0)
(0.133238 0 0)
(0.133227 0 0)
(0.133217 0 0)
(0.133206 0 0)
(0.133196 0 0)
(0.133184 0 0)
(0.133173 0 0)
(0.13316 0 0)
(0.133148 0 0)
(0.133135 0 0)
(0.133123 0 0)
(0.133109 0 0)
(0.133096 0 0)
(0.133082 0 0)
(0.133069 0 0)
(0.133054 0 0)
(0.13304 0 0)
(0.133025 0 0)
(0.133011 0 0)
(0.132996 0 0)
(0.132981 0 0)
(0.132965 0 0)
(0.13295 0 0)
(0.132934 0 0)
(0.132919 0 0)
(0.132903 0 0)
(0.132887 0 0)
(0.13287 0 0)
(0.132854 0 0)
(0.132838 0 0)
(0.132822 0 0)
(0.132805 0 0)
(0.132789 0 0)
(0.132772 0 0)
(0.132756 0 0)
(0.132739 0 0)
(0.132722 0 0)
(0.132706 0 0)
(0.132689 0 0)
(0.132672 0 0)
(0.132656 0 0)
(0.132639 0 0)
(0.132623 0 0)
(0.132606 0 0)
(0.13259 0 0)
(0.132574 0 0)
(0.132557 0 0)
(0.132541 0 0)
(0.132525 0 0)
(0.132509 0 0)
(0.132493 0 0)
(0.132477 0 0)
(0.132462 0 0)
(0.132446 0 0)
(0.132431 0 0)
(0.132415 0 0)
(0.1324 0 0)
(0.132385 0 0)
(0.13237 0 0)
(0.132356 0 0)
(0.132341 0 0)
(0.132327 0 0)
(0.132313 0 0)
(0.132299 0 0)
(0.132285 0 0)
(0.132271 0 0)
(0.132258 0 0)
(0.132244 0 0)
(0.132231 0 0)
(0.132218 0 0)
(0.132206 0 0)
(0.132193 0 0)
(0.132181 0 0)
(0.132169 0 0)
(0.132157 0 0)
(0.132145 0 0)
(0.132134 0 0)
(0.132122 0 0)
(0.132111 0 0)
(0.1321 0 0)
(0.13209 0 0)
(0.132079 0 0)
(0.132069 0 0)
(0.132059 0 0)
(0.132049 0 0)
(0.13204 0 0)
(0.13203 0 0)
(0.132021 0 0)
(0.132012 0 0)
(0.132003 0 0)
(0.131995 0 0)
(0.131986 0 0)
(0.131978 0 0)
(0.13197 0 0)
(0.131962 0 0)
(0.131955 0 0)
(0.131947 0 0)
(0.13194 0 0)
(0.131933 0 0)
(0.131926 0 0)
(0.13192 0 0)
(0.131913 0 0)
(0.131907 0 0)
(0.131901 0 0)
(0.131895 0 0)
(0.131889 0 0)
(0.131883 0 0)
(0.131878 0 0)
(0.131873 0 0)
(0.131867 0 0)
(0.131862 0 0)
(0.131858 0 0)
(0.131853 0 0)
(0.131848 0 0)
(0.131844 0 0)
(0.13184 0 0)
(0.131836 0 0)
(0.131832 0 0)
(0.131828 0 0)
(0.131824 0 0)
(0.131821 0 0)
(0.131817 0 0)
(0.131814 0 0)
(0.131811 0 0)
(0.131808 0 0)
(0.131805 0 0)
(0.131802 0 0)
(0.131799 0 0)
(0.131796 0 0)
(0.131794 0 0)
(0.131791 0 0)
(0.131789 0 0)
(0.131787 0 0)
(0.131784 0 0)
(0.131782 0 0)
(0.13178 0 0)
(0.131778 0 0)
(0.131776 0 0)
(0.131775 0 0)
(0.131773 0 0)
(0.131771 0 0)
(0.13177 0 0)
(0.131768 0 0)
(0.131767 0 0)
(0.131765 0 0)
(0.131764 0 0)
(0.131763 0 0)
(0.131761 0 0)
(0.13176 0 0)
(0.131759 0 0)
(0.131758 0 0)
(0.131757 0 0)
(0.131756 0 0)
(0.131755 0 0)
(0.131754 0 0)
(0.131753 0 0)
(0.131753 0 0)
(0.131752 0 0)
(0.131751 0 0)
(0.13175 0 0)
(0.13175 0 0)
(0.131749 0 0)
(0.131748 0 0)
(0.131748 0 0)
(0.131747 0 0)
(0.131747 0 0)
(0.131746 0 0)
(0.131746 0 0)
(0.131745 0 0)
(0.131745 0 0)
(0.131745 0 0)
(0.131744 0 0)
(0.131744 0 0)
(0.131744 0 0)
(0.131743 0 0)
(0.131743 0 0)
(0.131743 0 0)
(0.131742 0 0)
(0.131742 0 0)
(0.131742 0 0)
(0.131742 0 0)
(0.131741 0 0)
(0.131741 0 0)
(0.131741 0 0)
(0.131741 0 0)
(0.131741 0 0)
(0.13174 0 0)
(0.13174 0 0)
(0.13174 0 0)
(0.13174 0 0)
(0.13174 0 0)
(0.13174 0 0)
(0.13174 0 0)
(0.13174 0 0)
(0.131739 0 0)
(0.131739 0 0)
(0.131739 0 0)
(0.131739 0 0)
(0.131739 0 0)
(0.131739 0 0)
(0.131739 0 0)
(0.131739 0 0)
(0.131739 0 0)
(0.131739 0 0)
(0.131739 0 0)
(0.131739 0 0)
(0.131739 0 0)
(0.131739 0 0)
(0.131739 0 0)
(0.131739 0 0)
(0.131738 0 0)
(0.131738 0 0)
(0.131738 0 0)
(0.131738 0 0)
(0.131738 0 0)
(0.131738 0 0)
(0.131738 0 0)
(0.131738 0 0)
(0.131738 0 0)
(0.131738 0 0)
(0.131738 0 0)
(0.131738 0 0)
(0.131738 0 0)
(0.131738 0 0)
(0.131738 0 0)
(0.131738 0 0)
(0.131738 0 0)
(0.131738 0 0)
(0.131738 0 0)
(0.131738 0 0)
(0.131738 0 0)
(0.131738 0 0)
(0.131738 0 0)
(0.131738 0 0)
(0.131738 0 0)
(0.131738 0 0)
(0.131738 0 0)
(0.131738 0 0)
(0.131738 0 0)
(0.131738 0 0)
(0.131738 0 0)
(0.131738 0 0)
(0.131738 0 0)
(0.131738 0 0)
(0.131738 0 0)
(0.131738 0 0)
(0.131738 0 0)
(0.131738 0 0)
(0.131738 0 0)
(0.131738 0 0)
(0.131738 0 0)
(0.131738 0 0)
(0.131738 0 0)
(0.131738 0 0)
(0.131738 0 0)
(0.131738 0 0)
(0.131738 0 0)
(0.131738 0 0)
(0.131738 0 0)
(0.131738 0 0)
(0.131738 0 0)
(0.131738 0 0)
(0.131738 0 0)
(0.131738 0 0)
(0.131738 0 0)
(0.131738 0 0)
(0.131738 0 0)
(0.131738 0 0)
(0.131738 0 0)
(0.131738 0 0)
(0.131738 0 0)
(0.131738 0 0)
(0.131738 0 0)
(0.131738 0 0)
(0.131738 0 0)
(0.131738 0 0)
(0.131738 0 0)
(0.131738 0 0)
(0.131738 0 0)
(0.131738 0 0)
(0.131738 0 0)
(0.131738 0 0)
(0.131738 0 0)
(0.131738 0 0)
(0.131738 0 0)
(0.131738 0 0)
(0.131738 0 0)
(0.131738 0 0)
(0.131738 0 0)
(0.131738 0 0)
(0.131738 0 0)
(0.131738 0 0)
(0.131738 0 0)
(0.131738 0 0)
(0.131738 0 0)
(0.131738 0 0)
(0.131738 0 0)
(0.131738 0 0)
(0.131738 0 0)
(0.131738 0 0)
(0.131738 0 0)
(0.131738 0 0)
(0.131738 0 0)
(0.131738 0 0)
(0.131738 0 0)
(0.131738 0 0)
(0.131738 0 0)
(0.131738 0 0)
(0.131738 0 0)
(0.131738 0 0)
(0.131738 0 0)
(0.131738 0 0)
(0.131738 0 0)
(0.131738 0 0)
(0.131738 0 0)
(0.131738 0 0)
(0.131738 0 0)
(0.131738 0 0)
(0.131738 0 0)
(0.131738 0 0)
(0.131738 0 0)
(0.131738 0 0)
(0.131738 0 0)
(0.131738 0 0)
(0.131738 0 0)
(0.131738 0 0)
(0.131738 0 0)
(0.131738 0 0)
(0.131738 0 0)
(0.131738 0 0)
(0.131738 0 0)
(0.131738 0 0)
(0.131738 0 0)
(0.131738 0 0)
(0.131738 0 0)
(0.131738 0 0)
(0.131738 0 0)
(0.131738 0 0)
(0.131738 0 0)
(0.131738 0 0)
(0.131738 0 0)
(0.131738 0 0)
(0.131738 0 0)
(0.131738 0 0)
(0.131738 0 0)
(0.131738 0 0)
(0.131738 0 0)
(0.131738 0 0)
(0.131738 0 0)
(0.131738 0 0)
(0.131738 0 0)
(0.131738 0 0)
(0.131738 0 0)
(0.131738 0 0)
(0.131738 0 0)
(0.131738 0 0)
(0.131738 0 0)
(0.131738 0 0)
(0.131738 0 0)
(0.131738 0 0)
(0.131738 0 0)
(0.131738 0 0)
(0.131738 0 0)
(0.131738 0 0)
(0.131738 0 0)
(0.131738 0 0)
(0.131738 0 0)
(0.131738 0 0)
(0.131738 0 0)
(0.131738 0 0)
(0.131738 0 0)
(0.131738 0 0)
(0.131738 0 0)
(0.131738 0 0)
(0.131738 0 0)
(0.131738 0 0)
(0.131738 0 0)
(0.131738 0 0)
(0.131738 0 0)
(0.131738 0 0)
(0.131738 0 0)
(0.131738 0 0)
(0.131738 0 0)
(0.131738 0 0)
(0.131738 0 0)
(0.131738 0 0)
(0.131738 0 0)
(0.131738 0 0)
(0.131738 0 0)
(0.131738 0 0)
(0.131738 0 0)
(0.131738 0 0)
(0.131738 0 0)
(0.131738 0 0)
(0.131738 0 0)
(0.131738 0 0)
(0.131738 0 0)
(0.131738 0 0)
(0.131738 0 0)
(0.131738 0 0)
(0.131738 0 0)
(0.131738 0 0)
(0.131738 0 0)
(0.131738 0 0)
(0.131738 0 0)
(0.131738 0 0)
(0.131738 0 0)
(0.131738 0 0)
(0.131738 0 0)
(0.131738 0 0)
(0.131738 0 0)
(0.131738 0 0)
(0.131738 0 0)
(0.131738 0 0)
(0.131738 0 0)
(0.131738 0 0)
(0.131738 0 0)
(0.131738 0 0)
(0.131738 0 0)
(0.131738 0 0)
(0.131738 0 0)
(0.131738 0 0)
(0.131738 0 0)
(0.131738 0 0)
(0.131738 0 0)
(0.131738 0 0)
(0.131738 0 0)
(0.131738 0 0)
(0.131738 0 0)
(0.131738 0 0)
(0.131738 0 0)
(0.131738 0 0)
(0.131738 0 0)
(0.131738 0 0)
(0.131738 0 0)
(0.131738 0 0)
(0.131738 0 0)
(0.131738 0 0)
(0.131738 0 0)
(0.131738 0 0)
(0.131738 0 0)
(0.131738 0 0)
(0.131738 0 0)
(0.131738 0 0)
(0.131738 0 0)
(0.131738 0 0)
(0.131738 0 0)
(0.131738 0 0)
(0.131738 0 0)
(0.131738 0 0)
(0.131738 0 0)
(0.131738 0 0)
(0.131738 0 0)
(0.131738 0 0)
(0.131738 0 0)
(0.131738 0 0)
(0.131738 0 0)
(0.131738 0 0)
(0.131738 0 0)
(0.131738 0 0)
(0.131738 0 0)
(0.131738 0 0)
(0.131738 0 0)
(0.131738 0 0)
(0.131738 0 0)
(0.131738 0 0)
(0.131738 0 0)
(0.131738 0 0)
(0.131738 0 0)
(0.131738 0 0)
(0.131738 0 0)
(0.131738 0 0)
(0.131738 0 0)
(0.131738 0 0)
(0.131738 0 0)
(0.131738 0 0)
(0.131738 0 0)
(0.131738 0 0)
(0.131738 0 0)
(0.131738 0 0)
(0.131738 0 0)
(0.131738 0 0)
(0.131738 0 0)
(0.131738 0 0)
(0.131738 0 0)
(0.131738 0 0)
(0.131738 0 0)
(0.131738 0 0)
(0.131738 0 0)
(0.131738 0 0)
(0.131738 0 0)
(0.131738 0 0)
(0.131738 0 0)
(0.131738 0 0)
(0.131738 0 0)
(0.131738 0 0)
(0.131738 0 0)
(0.131738 0 0)
(0.131738 0 0)
(0.131738 0 0)
(0.131738 0 0)
(0.131738 0 0)
(0.131738 0 0)
(0.131738 0 0)
(0.131738 0 0)
(0.131738 0 0)
(0.131738 0 0)
(0.131738 0 0)
(0.131738 0 0)
(0.131738 0 0)
(0.131738 0 0)
(0.131738 0 0)
(0.131738 0 0)
(0.131738 0 0)
(0.131738 0 0)
(0.131738 0 0)
(0.131738 0 0)
(0.131738 0 0)
(0.131738 0 0)
(0.131738 0 0)
(0.131738 0 0)
(0.131738 0 0)
(0.131738 0 0)
(0.131738 0 0)
(0.131738 0 0)
(0.131738 0 0)
(0.131738 0 0)
(0.131738 0 0)
(0.131738 0 0)
(0.131738 0 0)
(0.131738 0 0)
(0.131738 0 0)
(0.131738 0 0)
(0.131738 0 0)
(0.131738 0 0)
(0.131738 0 0)
(0.131738 0 0)
(0.131738 0 0)
(0.131738 0 0)
(0.131738 0 0)
(0.131738 0 0)
(0.131738 0 0)
(0.131738 0 0)
(0.131738 0 0)
(0.131738 0 0)
(0.131738 0 0)
(0.131738 0 0)
(0.131738 0 0)
(0.131738 0 0)
(0.131738 0 0)
(0.131738 0 0)
(0.131738 0 0)
(0.131738 0 0)
(0.131738 0 0)
(0.131738 0 0)
(0.131738 0 0)
(0.131738 0 0)
(0.131738 0 0)
(0.131738 0 0)
(0.131738 0 0)
(0.131738 0 0)
(0.131738 0 0)
(0.131738 0 0)
(0.131738 0 0)
(0.131738 0 0)
(0.131738 0 0)
(0.131738 0 0)
(0.131738 0 0)
(0.131738 0 0)
(0.131738 0 0)
(0.131738 0 0)
(0.131738 0 0)
(0.131738 0 0)
(0.131738 0 0)
(0.131738 0 0)
(0.131738 0 0)
(0.131738 0 0)
(0.131738 0 0)
(0.131738 0 0)
(0.131738 0 0)
(0.131738 0 0)
(0.131738 0 0)
(0.131738 0 0)
(0.131738 0 0)
(0.131738 0 0)
(0.131738 0 0)
(0.131738 0 0)
(0.131738 0 0)
(0.131738 0 0)
(0.131738 0 0)
(0.131738 0 0)
(0.131738 0 0)
(0.131738 0 0)
(0.131738 0 0)
(0.131738 0 0)
(0.131738 0 0)
(0.131738 0 0)
(0.131738 0 0)
(0.131738 0 0)
(0.131738 0 0)
(0.131738 0 0)
(0.131738 0 0)
(0.131738 0 0)
(0.131738 0 0)
(0.131738 0 0)
(0.131738 0 0)
(0.131738 0 0)
(0.131738 0 0)
(0.131738 0 0)
(0.131738 0 0)
(0.131738 0 0)
(0.131738 0 0)
(0.131738 0 0)
(0.131738 0 0)
(0.131738 0 0)
(0.131738 0 0)
(0.131738 0 0)
(0.131738 0 0)
(0.131738 0 0)
(0.131738 0 0)
(0.131738 0 0)
(0.131738 0 0)
(0.131738 0 0)
(0.131738 0 0)
(0.131738 0 0)
(0.131738 0 0)
(0.131738 0 0)
(0.131738 0 0)
(0.131738 0 0)
(0.131738 0 0)
(0.131738 0 0)
(0.131738 0 0)
(0.131738 0 0)
(0.131738 0 0)
(0.131738 0 0)
(0.131738 0 0)
(0.131737 0 0)
(0.131739 0 0)
(0.131737 0 0)
(0.131739 0 0)
(0.131737 0 0)
(0.131739 0 0)
(0.131737 0 0)
(0.131739 0 0)
(0.131737 0 0)
(0.131739 0 0)
(0.131737 0 0)
(0.131739 0 0)
(0.131737 0 0)
(0.131739 0 0)
(0.131737 0 0)
(0.131739 0 0)
(0.131737 0 0)
(0.131739 0 0)
(0.131737 0 0)
(0.131739 0 0)
(0.131736 0 0)
(0.13174 0 0)
(0.131736 0 0)
(0.13174 0 0)
(0.131736 0 0)
(0.13174 0 0)
(0.131736 0 0)
(0.13174 0 0)
(0.131736 0 0)
(0.13174 0 0)
(0.131736 0 0)
(0.13174 0 0)
(0.131735 0 0)
(0.131741 0 0)
(0.131735 0 0)
(0.131741 0 0)
(0.131735 0 0)
(0.131741 0 0)
(0.131734 0 0)
(0.131742 0 0)
(0.131734 0 0)
(0.131742 0 0)
(0.131734 0 0)
(0.131742 0 0)
(0.131733 0 0)
(0.131743 0 0)
(0.131733 0 0)
(0.131743 0 0)
(0.131732 0 0)
(0.131743 0 0)
(0.131732 0 0)
(0.131744 0 0)
(0.131732 0 0)
(0.131744 0 0)
(0.131731 0 0)
(0.131745 0 0)
(0.13173 0 0)
(0.131745 0 0)
(0.13173 0 0)
(0.131746 0 0)
(0.131729 0 0)
(0.131746 0 0)
(0.131729 0 0)
(0.131747 0 0)
(0.131728 0 0)
(0.131747 0 0)
(0.131727 0 0)
(0.131748 0 0)
(0.131726 0 0)
(0.131749 0 0)
(0.131726 0 0)
(0.131749 0 0)
(0.131725 0 0)
(0.13175 0 0)
(0.131724 0 0)
(0.131751 0 0)
(0.131723 0 0)
(0.131751 0 0)
(0.131722 0 0)
(0.131752 0 0)
(0.131721 0 0)
(0.131753 0 0)
(0.13172 0 0)
(0.131754 0 0)
(0.131719 0 0)
(0.131754 0 0)
(0.131718 0 0)
(0.131755 0 0)
(0.131716 0 0)
(0.131756 0 0)
(0.131715 0 0)
(0.131757 0 0)
(0.131714 0 0)
(0.131758 0 0)
(0.131713 0 0)
(0.131758 0 0)
(0.131711 0 0)
(0.131759 0 0)
(0.13171 0 0)
(0.13176 0 0)
(0.131709 0 0)
(0.131761 0 0)
(0.131707 0 0)
(0.131762 0 0)
(0.131706 0 0)
(0.131762 0 0)
(0.131704 0 0)
(0.131763 0 0)
(0.131703 0 0)
(0.131764 0 0)
(0.131702 0 0)
(0.131765 0 0)
(0.1317 0 0)
(0.131765 0 0)
(0.131699 0 0)
(0.131766 0 0)
(0.131697 0 0)
(0.131767 0 0)
(0.131696 0 0)
(0.131767 0 0)
(0.131694 0 0)
)
;

boundaryField
{
    topWall
    {
        type            empty;
    }
    bottomWall
    {
        type            empty;
    }
    leftAndRight_half1
    {
        type            cyclic;
    }
    leftAndRight_half0
    {
        type            cyclic;
    }
    frontAndBack
    {
        type            empty;
    }
}


// ************************************************************************* //
