/*--------------------------------*- C++ -*----------------------------------*\
  =========                 |
  \\      /  F ield         | OpenFOAM: The Open Source CFD Toolbox
   \\    /   O peration     | Website:  https://openfoam.org
    \\  /    A nd           | Version:  9
     \\/     M anipulation  |
\*---------------------------------------------------------------------------*/
FoamFile
{
    format      ascii;
    class       volScalarField;
    location    "0.45";
    object      f_0;
}
// * * * * * * * * * * * * * * * * * * * * * * * * * * * * * * * * * * * * * //

dimensions      [1 -3 0 0 0 0 0];

internalField   nonuniform List<scalar> 
1000
(
666.667
666.667
666.667
666.667
666.667
666.667
666.667
666.667
666.667
666.667
666.667
666.667
666.667
666.667
666.667
666.667
666.667
666.667
666.667
666.667
666.667
666.667
666.667
666.667
666.667
666.667
666.667
666.667
666.667
666.667
666.667
666.667
666.667
666.667
666.667
666.667
666.667
666.667
666.667
666.667
666.667
666.667
666.667
666.667
666.667
666.667
666.667
666.667
666.667
666.667
666.667
666.667
666.667
666.667
666.667
666.667
666.667
666.667
666.667
666.667
666.667
666.667
666.667
666.667
666.667
666.667
666.667
666.667
666.667
666.667
666.667
666.667
666.667
666.667
666.667
666.667
666.667
666.667
666.667
666.667
666.667
666.667
666.667
666.667
666.667
666.667
666.667
666.667
666.667
666.667
666.667
666.667
666.667
666.667
666.667
666.667
666.667
666.667
666.667
666.667
666.667
666.667
666.667
666.667
666.667
666.667
666.667
666.667
666.667
666.667
666.667
666.667
666.667
666.667
666.667
666.667
666.667
666.667
666.667
666.667
666.667
666.667
666.667
666.667
666.667
666.667
666.667
666.667
666.667
666.667
666.667
666.667
666.667
666.667
666.667
666.667
666.667
666.667
666.667
666.667
666.667
666.667
666.667
666.667
666.667
666.667
666.667
666.667
666.667
666.667
666.667
666.667
666.667
666.667
666.667
666.667
666.667
666.667
666.667
666.667
666.667
666.667
666.667
666.667
666.667
666.667
666.667
666.667
666.667
666.667
666.667
666.667
666.667
666.667
666.667
666.667
666.667
666.667
666.667
666.667
666.667
666.667
666.667
666.667
666.667
666.667
666.667
666.667
666.667
666.667
666.667
666.667
666.667
666.667
666.667
666.667
666.667
666.667
666.667
666.667
666.667
666.667
666.667
666.667
666.667
666.667
666.667
666.667
666.666
666.666
666.666
666.666
666.666
666.666
666.666
666.666
666.666
666.666
666.666
666.666
666.666
666.666
666.666
666.666
666.666
666.666
666.666
666.666
666.666
666.666
666.666
666.666
666.666
666.666
666.666
666.666
666.666
666.666
666.666
666.666
666.666
666.666
666.666
666.666
666.666
666.666
666.666
666.666
666.665
666.665
666.665
666.665
666.665
666.665
666.665
666.665
666.665
666.665
666.665
666.665
666.665
666.665
666.665
666.664
666.664
666.664
666.664
666.664
666.664
666.664
666.664
666.664
666.664
666.663
666.663
666.663
666.663
666.663
666.663
666.663
666.662
666.662
666.662
666.662
666.662
666.662
666.661
666.661
666.661
666.661
666.661
666.66
666.66
666.66
666.66
666.66
666.659
666.659
666.659
666.659
666.658
666.658
666.658
666.657
666.657
666.657
666.657
666.656
666.656
666.656
666.655
666.655
666.655
666.654
666.654
666.654
666.653
666.653
666.652
666.652
666.652
666.651
666.651
666.65
666.65
666.65
666.649
666.649
666.648
666.648
666.647
666.647
666.646
666.646
666.645
666.645
666.644
666.644
666.643
666.643
666.642
666.641
666.641
666.64
666.64
666.639
666.638
666.638
666.637
666.637
666.636
666.635
666.635
666.634
666.633
666.633
666.632
666.631
666.631
666.63
666.629
666.629
666.628
666.627
666.626
666.626
666.625
666.624
666.623
666.623
666.622
666.621
666.62
666.62
666.619
666.618
666.617
666.617
666.616
666.615
666.614
666.613
666.613
666.612
666.611
666.61
666.609
666.609
666.608
666.607
666.606
666.605
666.604
666.604
666.603
666.602
666.601
666.6
666.599
666.599
666.598
666.597
666.596
666.595
666.594
666.594
666.593
666.592
666.591
666.59
666.589
666.589
666.588
666.587
666.586
666.585
666.585
666.584
666.583
666.582
666.581
666.58
666.58
666.579
666.578
666.577
666.576
666.576
666.575
666.574
666.573
666.572
666.572
666.571
666.57
666.569
666.569
666.568
666.567
666.566
666.566
666.565
666.564
666.563
666.563
666.562
666.561
666.56
666.56
666.559
666.558
666.558
666.557
666.556
666.555
666.555
666.554
666.553
666.553
666.552
666.551
666.551
666.55
666.549
666.549
666.548
666.547
666.547
666.546
666.546
666.545
666.544
666.544
666.543
666.543
666.542
666.541
666.541
666.54
666.54
666.539
666.539
666.538
666.537
666.537
666.536
666.536
666.535
666.535
666.534
666.534
666.533
666.533
666.532
666.532
666.531
666.531
666.53
666.53
666.529
666.529
666.528
666.528
666.527
666.527
666.526
666.526
666.526
666.525
666.525
666.524
666.524
666.523
666.523
666.523
666.522
666.522
666.521
666.521
666.521
666.52
666.52
666.52
666.519
666.519
666.518
666.518
666.518
666.517
666.517
666.517
666.516
666.516
666.516
666.515
666.515
666.515
666.514
666.514
666.514
666.514
666.513
666.513
666.513
666.512
666.512
666.512
666.512
666.511
666.511
666.511
666.511
666.51
666.51
666.51
666.51
666.509
666.509
666.509
666.509
666.509
666.508
666.508
666.508
666.508
666.508
666.507
666.507
666.507
666.507
666.507
666.507
666.506
666.506
666.506
666.506
666.506
666.506
666.506
666.505
666.505
666.505
666.505
666.505
666.505
666.505
666.505
666.505
666.505
666.505
666.505
666.505
666.505
666.505
666.505
666.505
666.505
666.505
666.505
666.505
666.505
666.505
666.505
666.506
666.506
666.506
666.506
666.506
666.506
666.507
666.507
666.507
666.508
666.508
666.508
666.509
666.509
666.509
666.51
666.51
666.511
666.511
666.512
666.513
666.513
666.514
666.515
666.516
666.516
666.517
666.518
666.519
666.52
666.522
666.523
666.524
666.525
666.527
666.528
666.53
666.531
666.533
666.535
666.537
666.539
666.541
666.543
666.546
666.548
666.551
666.554
666.557
666.56
666.563
666.567
666.571
666.574
666.578
666.583
666.587
666.592
666.597
666.602
666.608
666.613
666.619
666.626
666.632
666.639
666.646
666.654
666.662
666.67
666.679
666.688
666.698
666.708
666.718
666.729
666.74
666.752
666.764
666.776
666.789
666.802
666.816
666.831
666.845
666.861
666.876
666.892
666.908
666.925
666.942
666.959
666.977
666.995
667.013
667.031
667.049
667.067
667.085
667.103
667.12
667.138
667.155
667.172
667.188
667.204
667.219
667.233
667.246
667.259
667.271
667.281
667.291
667.299
667.307
667.313
667.318
667.321
667.323
667.324
667.324
667.323
667.32
667.316
667.31
667.304
667.296
667.288
667.278
667.268
667.256
667.244
667.231
667.218
667.204
667.19
667.175
667.16
667.145
667.129
667.113
667.098
667.082
667.067
667.051
667.036
667.021
667.006
666.991
666.977
666.963
666.95
666.937
666.924
666.911
666.899
666.888
666.877
666.866
666.856
666.846
666.836
666.827
666.819
666.81
666.802
666.795
666.788
666.781
666.774
666.768
666.762
666.757
666.751
666.746
666.741
666.737
666.733
666.729
666.725
666.721
666.718
666.715
666.712
666.709
666.706
666.704
666.701
666.699
666.697
666.695
666.693
666.692
666.69
666.689
666.687
666.686
666.684
666.683
666.682
666.681
666.68
666.679
666.678
666.678
666.677
666.676
666.676
666.675
666.674
666.674
666.673
666.673
666.672
666.672
666.672
666.671
666.671
666.671
666.67
666.67
666.67
666.67
666.669
666.669
666.669
666.669
666.669
666.669
666.668
666.668
666.668
666.668
666.668
666.668
666.668
666.668
666.668
666.668
666.668
666.667
666.667
666.667
666.667
666.667
666.667
666.667
666.667
666.667
666.667
666.667
666.667
666.667
666.667
666.667
666.667
666.667
666.667
666.667
666.667
666.667
666.667
666.667
666.667
666.667
666.667
666.667
666.667
666.667
666.667
666.667
666.667
666.667
666.667
666.667
666.667
666.667
666.667
666.667
666.667
666.667
666.667
666.667
666.667
666.667
666.667
666.667
666.667
666.667
666.667
666.667
666.667
666.667
666.667
666.667
666.667
666.667
666.667
666.667
666.667
666.667
666.667
666.667
666.667
666.667
666.667
666.667
666.667
666.667
666.667
666.667
666.667
666.667
666.667
666.667
666.667
666.667
666.667
666.667
666.667
666.667
666.667
666.667
666.667
666.667
666.667
666.667
666.667
666.667
666.667
666.667
666.667
666.667
666.667
666.667
666.667
666.667
666.667
666.667
666.667
666.667
666.667
666.667
666.667
666.667
666.667
666.667
666.667
666.667
666.667
666.667
666.667
666.667
666.667
666.667
666.667
666.667
666.667
666.667
666.667
666.667
666.667
666.667
666.667
666.667
666.667
666.667
666.667
666.667
666.667
666.667
666.667
666.667
666.667
666.667
666.667
666.667
666.667
666.667
666.667
666.667
666.667
666.667
666.667
666.667
666.667
666.667
666.667
666.667
666.667
666.667
666.667
666.667
666.667
666.667
666.667
666.667
)
;

boundaryField
{
    topWall
    {
        type            empty;
    }
    bottomWall
    {
        type            empty;
    }
    leftAndRight_half1
    {
        type            cyclic;
    }
    leftAndRight_half0
    {
        type            cyclic;
    }
    frontAndBack
    {
        type            empty;
    }
}


// ************************************************************************* //
