/*--------------------------------*- C++ -*----------------------------------*\
  =========                 |
  \\      /  F ield         | OpenFOAM: The Open Source CFD Toolbox
   \\    /   O peration     | Website:  https://openfoam.org
    \\  /    A nd           | Version:  9
     \\/     M anipulation  |
\*---------------------------------------------------------------------------*/
FoamFile
{
    format      ascii;
    class       volScalarField;
    location    "0.45";
    object      f_1;
}
// * * * * * * * * * * * * * * * * * * * * * * * * * * * * * * * * * * * * * //

dimensions      [1 -3 0 0 0 0 0];

internalField   nonuniform List<scalar> 
1000
(
168.881
168.881
168.881
168.881
168.881
168.881
168.881
168.881
168.881
168.881
168.881
168.881
168.881
168.881
168.881
168.881
168.881
168.881
168.881
168.881
168.881
168.881
168.881
168.881
168.881
168.881
168.881
168.881
168.881
168.881
168.881
168.881
168.881
168.881
168.881
168.881
168.881
168.881
168.881
168.881
168.881
168.881
168.881
168.881
168.881
168.881
168.881
168.881
168.881
168.881
168.881
168.881
168.881
168.881
168.881
168.881
168.881
168.881
168.881
168.881
168.881
168.881
168.881
168.881
168.881
168.881
168.881
168.881
168.881
168.881
168.881
168.881
168.881
168.881
168.881
168.881
168.881
168.881
168.881
168.881
168.881
168.881
168.881
168.881
168.881
168.881
168.881
168.881
168.881
168.881
168.881
168.881
168.881
168.881
168.881
168.881
168.881
168.881
168.881
168.881
168.881
168.881
168.881
168.881
168.881
168.881
168.881
168.881
168.881
168.881
168.881
168.881
168.881
168.881
168.881
168.881
168.881
168.881
168.881
168.881
168.881
168.881
168.881
168.881
168.881
168.881
168.881
168.881
168.881
168.881
168.881
168.881
168.881
168.881
168.881
168.881
168.881
168.881
168.881
168.881
168.881
168.881
168.881
168.881
168.881
168.881
168.881
168.881
168.881
168.881
168.881
168.881
168.881
168.881
168.881
168.881
168.881
168.881
168.881
168.881
168.881
168.881
168.881
168.881
168.881
168.881
168.881
168.881
168.881
168.881
168.881
168.881
168.881
168.881
168.881
168.881
168.881
168.881
168.881
168.881
168.881
168.881
168.882
168.882
168.882
168.882
168.882
168.882
168.882
168.882
168.882
168.882
168.882
168.882
168.882
168.882
168.882
168.882
168.882
168.882
168.882
168.882
168.882
168.882
168.882
168.882
168.882
168.883
168.883
168.883
168.883
168.883
168.883
168.883
168.883
168.883
168.883
168.884
168.884
168.884
168.884
168.884
168.884
168.884
168.885
168.885
168.885
168.885
168.885
168.886
168.886
168.886
168.886
168.887
168.887
168.887
168.888
168.888
168.888
168.889
168.889
168.89
168.89
168.89
168.891
168.891
168.892
168.892
168.893
168.894
168.894
168.895
168.895
168.896
168.897
168.898
168.898
168.899
168.9
168.901
168.902
168.903
168.904
168.905
168.906
168.907
168.908
168.91
168.911
168.912
168.913
168.915
168.916
168.918
168.92
168.921
168.923
168.925
168.927
168.929
168.931
168.933
168.935
168.937
168.939
168.942
168.944
168.947
168.95
168.952
168.955
168.958
168.961
168.965
168.968
168.971
168.975
168.978
168.982
168.986
168.99
168.994
168.998
169.003
169.007
169.012
169.017
169.022
169.027
169.032
169.038
169.043
169.049
169.055
169.061
169.067
169.074
169.081
169.087
169.094
169.102
169.109
169.117
169.125
169.133
169.141
169.15
169.158
169.167
169.177
169.186
169.196
169.206
169.216
169.226
169.237
169.248
169.259
169.27
169.282
169.294
169.307
169.319
169.332
169.345
169.359
169.373
169.387
169.401
169.416
169.431
169.446
169.462
169.478
169.494
169.511
169.528
169.545
169.563
169.581
169.599
169.618
169.637
169.656
169.676
169.696
169.717
169.738
169.759
169.781
169.803
169.825
169.848
169.871
169.895
169.919
169.943
169.968
169.993
170.019
170.045
170.071
170.098
170.126
170.153
170.181
170.21
170.239
170.268
170.298
170.328
170.359
170.39
170.421
170.453
170.485
170.518
170.551
170.585
170.619
170.653
170.688
170.724
170.759
170.796
170.832
170.869
170.907
170.945
170.983
171.022
171.061
171.101
171.141
171.182
171.223
171.264
171.306
171.348
171.391
171.434
171.478
171.522
171.566
171.611
171.656
171.702
171.748
171.795
171.842
171.889
171.937
171.986
172.034
172.083
172.133
172.183
172.233
172.284
172.335
172.387
172.439
172.491
172.544
172.597
172.651
172.705
172.759
172.814
172.869
172.925
172.981
173.037
173.094
173.151
173.208
173.266
173.324
173.383
173.442
173.501
173.561
173.621
173.682
173.743
173.804
173.865
173.927
173.99
174.052
174.115
174.179
174.242
174.306
174.371
174.435
174.5
174.566
174.631
174.697
174.764
174.831
174.898
174.965
175.033
175.101
175.169
175.237
175.306
175.376
175.445
175.515
175.585
175.655
175.726
175.797
175.869
175.94
176.012
176.084
176.157
176.229
176.303
176.376
176.449
176.523
176.597
176.672
176.747
176.821
176.897
176.972
177.048
177.124
177.2
177.277
177.353
177.43
177.508
177.585
177.663
177.741
177.819
177.898
177.976
178.055
178.134
178.214
178.293
178.373
178.453
178.534
178.614
178.695
178.776
178.857
178.938
179.02
179.102
179.184
179.266
179.348
179.431
179.514
179.597
179.68
179.763
179.847
179.931
180.015
180.099
180.183
180.268
180.352
180.437
180.522
180.608
180.693
180.778
180.864
180.95
181.036
181.122
181.209
181.295
181.382
181.469
181.556
181.643
181.73
181.817
181.905
181.992
182.08
182.168
182.256
182.344
182.433
182.521
182.609
182.698
182.787
182.876
182.965
183.054
183.143
183.232
183.321
183.41
183.5
183.589
183.679
183.769
183.858
183.948
184.038
184.128
184.217
184.307
184.397
184.487
184.577
184.667
184.757
184.846
184.936
185.026
185.116
185.206
185.295
185.385
185.474
185.564
185.653
185.742
185.831
185.92
186.009
186.097
186.185
186.274
186.361
186.449
186.536
186.624
186.71
186.797
186.883
186.969
187.054
187.139
187.223
187.307
187.39
187.473
187.555
187.637
187.718
187.798
187.877
187.956
188.034
188.11
188.186
188.261
188.335
188.407
188.479
188.549
188.618
188.685
188.751
188.815
188.878
188.939
188.998
189.055
189.11
189.162
189.213
189.261
189.306
189.349
189.389
189.426
189.46
189.49
189.517
189.541
189.56
189.576
189.588
189.595
189.597
189.595
189.588
189.575
189.557
189.534
189.504
189.469
189.427
189.378
189.322
189.26
189.189
189.112
189.026
188.932
188.83
188.719
188.6
188.471
188.333
188.186
188.03
187.863
187.687
187.501
187.305
187.1
186.884
186.658
186.423
186.177
185.923
185.658
185.385
185.103
184.812
184.513
184.206
183.892
183.571
183.244
182.911
182.573
182.23
181.884
181.534
181.181
180.827
180.472
180.116
179.76
179.405
179.052
178.702
178.354
178.01
177.67
177.335
177.005
176.681
176.363
176.051
175.747
175.45
175.16
174.878
174.605
174.339
174.082
173.834
173.593
173.361
173.138
172.923
172.717
172.518
172.328
172.146
171.971
171.804
171.645
171.493
171.348
171.21
171.079
170.954
170.835
170.722
170.615
170.513
170.417
170.326
170.24
170.158
170.081
170.008
169.939
169.875
169.813
169.755
169.701
169.65
169.601
169.556
169.513
169.473
169.435
169.4
169.366
169.335
169.305
169.278
169.252
169.228
169.205
169.183
169.163
169.145
169.127
169.111
169.095
169.081
169.067
169.055
169.043
169.032
169.022
169.012
169.003
168.995
168.987
168.98
168.973
168.966
168.96
168.955
168.95
168.945
168.94
168.936
168.932
168.929
168.925
168.922
168.919
168.917
168.914
168.912
168.909
168.907
168.906
168.904
168.902
168.901
168.899
168.898
168.897
168.896
168.894
168.894
168.893
168.892
168.891
168.89
168.89
168.889
168.888
168.888
168.887
168.887
168.886
168.886
168.886
168.885
168.885
168.885
168.884
168.884
168.884
168.884
168.884
168.883
168.883
168.883
168.883
168.883
168.883
168.883
168.882
168.882
168.882
168.882
168.882
168.882
168.882
168.882
168.882
168.882
168.882
168.882
168.882
168.882
168.882
168.882
168.882
168.882
168.881
168.881
168.881
168.881
168.881
168.881
168.881
168.881
168.881
168.881
168.881
168.881
168.881
168.881
168.881
168.881
168.881
168.881
168.881
168.881
168.881
168.881
168.881
168.881
168.881
168.881
168.881
168.881
168.881
168.881
168.881
168.881
168.881
168.881
168.881
168.881
168.881
168.881
168.881
168.881
168.881
168.881
168.881
168.881
168.881
168.881
168.881
168.881
168.881
168.881
168.881
168.881
168.881
168.881
168.881
168.881
168.881
168.881
168.881
168.881
168.881
168.881
168.881
168.881
168.881
168.881
168.881
168.881
168.881
168.881
168.881
168.881
168.881
168.881
168.881
168.881
168.881
168.881
168.881
168.881
168.881
168.881
168.881
168.881
168.881
168.881
168.881
168.881
168.881
168.881
168.881
168.881
168.881
168.881
168.881
168.881
168.881
168.881
168.881
168.881
168.881
168.881
168.881
168.881
168.881
168.881
168.881
168.881
168.881
168.881
168.881
168.881
168.881
168.881
168.881
168.881
168.881
168.881
168.881
168.881
)
;

boundaryField
{
    topWall
    {
        type            empty;
    }
    bottomWall
    {
        type            empty;
    }
    leftAndRight_half1
    {
        type            cyclic;
    }
    leftAndRight_half0
    {
        type            cyclic;
    }
    frontAndBack
    {
        type            empty;
    }
}


// ************************************************************************* //
