/*--------------------------------*- C++ -*----------------------------------*\
  =========                 |
  \\      /  F ield         | OpenFOAM: The Open Source CFD Toolbox
   \\    /   O peration     | Website:  https://openfoam.org
    \\  /    A nd           | Version:  9
     \\/     M anipulation  |
\*---------------------------------------------------------------------------*/
FoamFile
{
    format      ascii;
    class       volScalarField;
    location    "0.45";
    object      f_2;
}
// * * * * * * * * * * * * * * * * * * * * * * * * * * * * * * * * * * * * * //

dimensions      [1 -3 0 0 0 0 0];

internalField   nonuniform List<scalar> 
1000
(
164.481
164.481
164.481
164.481
164.481
164.481
164.481
164.481
164.481
164.481
164.481
164.481
164.481
164.481
164.481
164.481
164.481
164.481
164.481
164.481
164.481
164.481
164.481
164.481
164.481
164.481
164.481
164.481
164.481
164.481
164.481
164.481
164.481
164.481
164.481
164.481
164.481
164.481
164.481
164.481
164.481
164.481
164.481
164.481
164.481
164.481
164.481
164.481
164.481
164.481
164.481
164.481
164.481
164.481
164.481
164.481
164.481
164.481
164.481
164.481
164.481
164.481
164.481
164.481
164.481
164.481
164.481
164.481
164.481
164.481
164.481
164.481
164.481
164.481
164.481
164.481
164.481
164.481
164.481
164.481
164.481
164.481
164.481
164.481
164.481
164.481
164.481
164.481
164.481
164.481
164.481
164.481
164.481
164.481
164.481
164.481
164.481
164.481
164.481
164.481
164.481
164.481
164.481
164.481
164.481
164.481
164.481
164.481
164.481
164.481
164.481
164.481
164.481
164.481
164.481
164.481
164.481
164.481
164.481
164.481
164.481
164.481
164.481
164.481
164.481
164.481
164.481
164.481
164.481
164.481
164.481
164.481
164.481
164.481
164.481
164.481
164.481
164.481
164.481
164.481
164.481
164.481
164.481
164.481
164.481
164.481
164.481
164.481
164.481
164.481
164.481
164.481
164.481
164.481
164.481
164.481
164.481
164.481
164.481
164.481
164.481
164.481
164.481
164.481
164.481
164.481
164.481
164.481
164.481
164.481
164.481
164.481
164.481
164.481
164.481
164.481
164.481
164.481
164.481
164.481
164.481
164.481
164.481
164.481
164.481
164.481
164.481
164.481
164.481
164.481
164.481
164.481
164.481
164.48
164.48
164.48
164.48
164.48
164.48
164.48
164.48
164.48
164.48
164.48
164.48
164.48
164.48
164.48
164.48
164.479
164.479
164.479
164.479
164.479
164.479
164.479
164.479
164.479
164.478
164.478
164.478
164.478
164.478
164.477
164.477
164.477
164.477
164.477
164.476
164.476
164.476
164.476
164.475
164.475
164.475
164.474
164.474
164.474
164.473
164.473
164.472
164.472
164.471
164.471
164.47
164.47
164.469
164.469
164.468
164.468
164.467
164.466
164.466
164.465
164.464
164.463
164.462
164.461
164.461
164.46
164.459
164.457
164.456
164.455
164.454
164.453
164.452
164.45
164.449
164.447
164.446
164.444
164.443
164.441
164.439
164.438
164.436
164.434
164.432
164.43
164.428
164.425
164.423
164.421
164.418
164.416
164.413
164.41
164.407
164.404
164.401
164.398
164.395
164.392
164.388
164.384
164.381
164.377
164.373
164.369
164.365
164.36
164.356
164.351
164.346
164.341
164.336
164.331
164.326
164.32
164.314
164.309
164.303
164.296
164.29
164.283
164.277
164.27
164.262
164.255
164.248
164.24
164.232
164.224
164.215
164.207
164.198
164.189
164.179
164.17
164.16
164.15
164.14
164.129
164.119
164.107
164.096
164.085
164.073
164.061
164.048
164.036
164.023
164.01
163.996
163.982
163.968
163.954
163.939
163.924
163.909
163.893
163.877
163.861
163.844
163.827
163.81
163.792
163.774
163.756
163.737
163.718
163.699
163.679
163.659
163.639
163.618
163.597
163.576
163.554
163.532
163.509
163.486
163.463
163.439
163.415
163.391
163.366
163.341
163.315
163.289
163.263
163.236
163.209
163.181
163.153
163.125
163.096
163.067
163.037
163.007
162.977
162.946
162.915
162.884
162.852
162.819
162.787
162.754
162.72
162.686
162.652
162.617
162.582
162.546
162.51
162.474
162.437
162.4
162.363
162.325
162.287
162.248
162.209
162.169
162.129
162.089
162.049
162.007
161.966
161.924
161.882
161.84
161.797
161.753
161.71
161.665
161.621
161.576
161.531
161.485
161.439
161.393
161.346
161.299
161.252
161.204
161.156
161.108
161.059
161.01
160.96
160.911
160.86
160.81
160.759
160.708
160.656
160.605
160.552
160.5
160.447
160.394
160.341
160.287
160.233
160.178
160.124
160.069
160.013
159.958
159.902
159.846
159.789
159.732
159.675
159.618
159.56
159.503
159.444
159.386
159.327
159.268
159.209
159.15
159.09
159.03
158.97
158.909
158.848
158.787
158.726
158.664
158.603
158.541
158.479
158.416
158.353
158.29
158.227
158.164
158.1
158.037
157.973
157.909
157.844
157.779
157.715
157.65
157.584
157.519
157.453
157.388
157.322
157.255
157.189
157.123
157.056
156.989
156.922
156.855
156.787
156.72
156.652
156.584
156.516
156.448
156.379
156.311
156.242
156.173
156.104
156.035
155.966
155.897
155.827
155.757
155.688
155.618
155.548
155.477
155.407
155.337
155.266
155.195
155.125
155.054
154.983
154.911
154.84
154.769
154.697
154.626
154.554
154.482
154.411
154.339
154.267
154.194
154.122
154.05
153.977
153.905
153.832
153.76
153.687
153.614
153.542
153.469
153.396
153.323
153.249
153.176
153.103
153.03
152.957
152.883
152.81
152.736
152.663
152.589
152.516
152.442
152.368
152.295
152.221
152.147
152.074
152
151.926
151.852
151.778
151.705
151.631
151.557
151.483
151.409
151.336
151.262
151.188
151.114
151.041
150.967
150.894
150.82
150.746
150.673
150.6
150.526
150.453
150.38
150.307
150.234
150.161
150.088
150.015
149.943
149.87
149.798
149.726
149.654
149.582
149.51
149.439
149.368
149.296
149.226
149.155
149.085
149.014
148.945
148.875
148.806
148.737
148.668
148.6
148.532
148.465
148.398
148.331
148.265
148.199
148.134
148.07
148.006
147.942
147.88
147.818
147.756
147.696
147.636
147.577
147.519
147.461
147.405
147.35
147.296
147.243
147.191
147.14
147.091
147.043
146.997
146.952
146.909
146.867
146.827
146.789
146.753
146.719
146.687
146.658
146.631
146.606
146.584
146.565
146.548
146.535
146.525
146.518
146.514
146.515
146.519
146.526
146.539
146.555
146.576
146.602
146.632
146.668
146.708
146.755
146.807
146.865
146.929
146.999
147.076
147.159
147.249
147.347
147.452
147.564
147.683
147.811
147.946
148.09
148.241
148.401
148.569
148.745
148.929
149.122
149.323
149.532
149.749
149.974
150.207
150.448
150.695
150.95
151.211
151.479
151.752
152.031
152.315
152.604
152.896
153.193
153.492
153.793
154.097
154.401
154.707
155.012
155.317
155.62
155.922
156.222
156.518
156.812
157.101
157.387
157.667
157.943
158.213
158.477
158.735
158.986
159.231
159.47
159.701
159.925
160.142
160.352
160.554
160.749
160.937
161.118
161.291
161.458
161.618
161.77
161.917
162.056
162.19
162.317
162.438
162.553
162.663
162.767
162.867
162.961
163.05
163.134
163.214
163.29
163.362
163.429
163.493
163.554
163.611
163.665
163.716
163.763
163.808
163.851
163.891
163.928
163.964
163.997
164.028
164.057
164.085
164.111
164.135
164.157
164.179
164.199
164.217
164.235
164.251
164.267
164.281
164.295
164.307
164.319
164.33
164.34
164.35
164.359
164.367
164.375
164.382
164.389
164.396
164.402
164.407
164.412
164.417
164.422
164.426
164.43
164.433
164.437
164.44
164.443
164.446
164.448
164.451
164.453
164.455
164.457
164.458
164.46
164.462
164.463
164.464
164.466
164.467
164.468
164.469
164.47
164.471
164.471
164.472
164.473
164.473
164.474
164.474
164.475
164.475
164.476
164.476
164.477
164.477
164.477
164.478
164.478
164.478
164.478
164.479
164.479
164.479
164.479
164.479
164.479
164.48
164.48
164.48
164.48
164.48
164.48
164.48
164.48
164.48
164.48
164.48
164.481
164.481
164.481
164.481
164.481
164.481
164.481
164.481
164.481
164.481
164.481
164.481
164.481
164.481
164.481
164.481
164.481
164.481
164.481
164.481
164.481
164.481
164.481
164.481
164.481
164.481
164.481
164.481
164.481
164.481
164.481
164.481
164.481
164.481
164.481
164.481
164.481
164.481
164.481
164.481
164.481
164.481
164.481
164.481
164.481
164.481
164.481
164.481
164.481
164.481
164.481
164.481
164.481
164.481
164.481
164.481
164.481
164.481
164.481
164.481
164.481
164.481
164.481
164.481
164.481
164.481
164.481
164.481
164.481
164.481
164.481
164.481
164.481
164.481
164.481
164.481
164.481
164.481
164.481
164.481
164.481
164.481
164.481
164.481
164.481
164.481
164.481
164.481
164.481
164.481
164.481
164.481
164.481
164.481
164.481
164.481
164.481
164.481
164.481
164.481
164.481
164.481
164.481
164.481
164.481
164.481
164.481
164.481
164.481
164.481
164.481
164.481
164.481
164.481
164.481
164.481
164.481
164.481
164.481
164.481
164.481
164.481
164.481
164.481
164.481
164.481
164.481
164.481
164.481
164.481
164.481
164.481
164.481
)
;

boundaryField
{
    topWall
    {
        type            empty;
    }
    bottomWall
    {
        type            empty;
    }
    leftAndRight_half1
    {
        type            cyclic;
    }
    leftAndRight_half0
    {
        type            cyclic;
    }
    frontAndBack
    {
        type            empty;
    }
}


// ************************************************************************* //
