/*--------------------------------*- C++ -*----------------------------------*\
  =========                 |
  \\      /  F ield         | OpenFOAM: The Open Source CFD Toolbox
   \\    /   O peration     | Website:  https://openfoam.org
    \\  /    A nd           | Version:  9
     \\/     M anipulation  |
\*---------------------------------------------------------------------------*/
FoamFile
{
    format      ascii;
    class       volScalarField;
    location    "0.45";
    object      p;
}
// * * * * * * * * * * * * * * * * * * * * * * * * * * * * * * * * * * * * * //

dimensions      [1 -1 -2 0 0 0 0];

internalField   nonuniform List<scalar> 
1000
(
100097
100097
100097
100097
100097
100097
100097
100097
100097
100097
100097
100097
100097
100097
100097
100097
100097
100097
100097
100097
100097
100097
100097
100097
100097
100097
100097
100097
100097
100097
100097
100097
100097
100097
100097
100097
100097
100097
100097
100097
100097
100097
100097
100097
100097
100097
100097
100097
100097
100097
100097
100097
100097
100097
100097
100097
100097
100097
100097
100097
100097
100097
100097
100097
100097
100097
100097
100097
100097
100097
100097
100097
100097
100097
100097
100097
100097
100097
100097
100097
100097
100097
100097
100097
100097
100097
100097
100097
100097
100097
100097
100097
100097
100097
100097
100097
100097
100097
100097
100097
100097
100097
100097
100097
100097
100097
100097
100097
100097
100097
100097
100097
100097
100097
100097
100097
100097
100097
100097
100097
100097
100097
100097
100097
100097
100097
100097
100097
100097
100097
100097
100097
100097
100097
100097
100097
100097
100097
100097
100097
100097
100097
100097
100097
100097
100097
100097
100097
100097
100097
100097
100097
100097
100097
100097
100097
100097
100097
100097
100097
100097
100097
100097
100097
100097
100097
100097
100097
100097
100097
100097
100097
100097
100097
100097
100097
100097
100097
100097
100097
100097
100097
100097
100096
100096
100096
100096
100096
100096
100096
100096
100096
100096
100096
100096
100096
100096
100096
100096
100096
100096
100096
100096
100096
100096
100096
100096
100096
100096
100096
100095
100095
100095
100095
100095
100095
100095
100095
100095
100095
100095
100095
100094
100094
100094
100094
100094
100094
100094
100093
100093
100093
100093
100093
100093
100092
100092
100092
100092
100091
100091
100091
100091
100090
100090
100090
100089
100089
100089
100088
100088
100088
100087
100087
100087
100086
100086
100085
100085
100084
100084
100083
100083
100082
100081
100081
100080
100080
100079
100078
100077
100077
100076
100075
100074
100074
100073
100072
100071
100070
100069
100068
100067
100066
100065
100064
100063
100061
100060
100059
100058
100056
100055
100054
100052
100051
100049
100048
100046
100045
100043
100041
100040
100038
100036
100034
100033
100031
100029
100027
100025
100023
100021
100019
100017
100014
100012
100010
100008
100005
100003
100001
99998.2
99995.7
99993.2
99990.7
99988.1
99985.5
99982.8
99980.2
99977.5
99974.7
99971.9
99969.1
99966.3
99963.4
99960.6
99957.6
99954.7
99951.7
99948.7
99945.7
99942.7
99939.6
99936.6
99933.5
99930.4
99927.2
99924.1
99920.9
99917.8
99914.6
99911.4
99908.2
99905
99901.8
99898.7
99895.5
99892.3
99889.1
99885.9
99882.7
99879.6
99876.4
99873.3
99870.2
99867.1
99864
99860.9
99857.9
99854.9
99851.9
99849
99846.1
99843.2
99840.4
99837.6
99834.9
99832.2
99829.6
99827
99824.5
99822
99819.6
99817.3
99815
99812.8
99810.6
99808.6
99806.6
99804.7
99802.8
99801.1
99799.5
99797.9
99796.4
99795.1
99793.8
99792.6
99791.6
99790.6
99789.8
99789.1
99788.5
99788
99787.6
99787.4
99787.2
99787.3
99787.4
99787.7
99788.1
99788.7
99789.4
99790.3
99791.3
99792.5
99793.8
99795.3
99796.9
99798.8
99800.7
99802.9
99805.2
99807.7
99810.4
99813.2
99816.3
99819.5
99822.9
99826.5
99830.3
99834.3
99838.5
99842.9
99847.5
99852.3
99857.3
99862.6
99868
99873.7
99879.5
99885.6
99891.9
99898.5
99905.2
99912.2
99919.5
99926.9
99934.6
99942.5
99950.7
99959.1
99967.8
99976.7
99985.8
99995.2
100005
100015
100025
100035
100046
100057
100068
100080
100091
100103
100116
100128
100141
100154
100167
100181
100195
100209
100224
100239
100254
100269
100285
100300
100317
100333
100350
100367
100384
100402
100420
100438
100457
100476
100495
100515
100534
100555
100575
100596
100617
100638
100660
100682
100704
100727
100750
100773
100796
100820
100844
100869
100894
100919
100945
100970
100996
101023
101050
101077
101104
101132
101160
101189
101217
101247
101276
101306
101336
101366
101397
101428
101460
101491
101524
101556
101589
101622
101655
101689
101723
101758
101793
101828
101863
101899
101935
101972
102009
102046
102084
102122
102160
102199
102238
102277
102316
102356
102397
102438
102479
102520
102562
102604
102646
102689
102732
102776
102819
102864
102908
102953
102998
103044
103090
103136
103183
103230
103277
103325
103373
103421
103470
103519
103568
103618
103668
103719
103769
103821
103872
103924
103976
104029
104082
104135
104189
104242
104297
104351
104406
104462
104517
104573
104630
104686
104743
104801
104858
104917
104975
105034
105093
105152
105212
105272
105332
105393
105454
105515
105577
105639
105701
105764
105827
105890
105953
106017
106081
106146
106211
106276
106341
106406
106472
106538
106605
106672
106738
106806
106873
106941
107009
107077
107145
107213
107282
107351
107420
107489
107559
107628
107698
107768
107837
107907
107977
108047
108117
108187
108257
108327
108397
108467
108536
108605
108675
108743
108812
108880
108948
109015
109082
109148
109214
109279
109343
109406
109468
109530
109590
109649
109706
109762
109817
109869
109920
109969
110015
110060
110101
110140
110177
110210
110239
110265
110288
110306
110320
110330
110335
110335
110329
110319
110302
110280
110251
110215
110174
110125
110069
110006
109935
109857
109772
109678
109577
109469
109353
109229
109098
108960
108816
108664
108506
108342
108172
107997
107817
107633
107445
107254
107060
106863
106665
106466
106265
106065
105865
105665
105467
105271
105077
104885
104696
104510
104328
104150
103976
103806
103640
103479
103323
103172
103025
102883
102747
102615
102488
102366
102249
102137
102030
101927
101828
101734
101645
101559
101478
101400
101326
101256
101190
101127
101067
101010
100956
100905
100857
100811
100768
100727
100689
100653
100618
100586
100556
100527
100500
100475
100451
100428
100407
100387
100369
100351
100335
100319
100305
100291
100279
100267
100255
100245
100235
100226
100217
100209
100202
100195
100188
100182
100176
100171
100166
100161
100156
100152
100148
100145
100142
100138
100136
100133
100130
100128
100126
100124
100122
100120
100118
100117
100115
100114
100113
100112
100111
100110
100109
100108
100107
100106
100106
100105
100104
100104
100103
100103
100102
100102
100102
100101
100101
100101
100100
100100
100100
100100
100099
100099
100099
100099
100099
100099
100098
100098
100098
100098
100098
100098
100098
100098
100098
100098
100098
100097
100097
100097
100097
100097
100097
100097
100097
100097
100097
100097
100097
100097
100097
100097
100097
100097
100097
100097
100097
100097
100097
100097
100097
100097
100097
100097
100097
100097
100097
100097
100097
100097
100097
100097
100097
100097
100097
100097
100097
100097
100097
100097
100097
100097
100097
100097
100097
100097
100097
100097
100097
100097
100097
100097
100097
100097
100097
100097
100097
100097
100097
100097
100097
100097
100097
100097
100097
100097
100097
100097
100097
100097
100097
100097
100097
100097
100097
100097
100097
100097
100097
100097
100097
100097
100097
100097
100097
100097
100097
100097
100097
100097
100097
100097
100097
100097
100097
100097
100097
100097
100097
100097
100097
100097
100097
100097
100097
100097
100097
100097
100097
100097
100097
100097
100097
100097
100097
100097
100097
100097
100097
100097
100097
100097
100097
100097
100097
)
;

boundaryField
{
    topWall
    {
        type            empty;
    }
    bottomWall
    {
        type            empty;
    }
    leftAndRight_half1
    {
        type            cyclic;
    }
    leftAndRight_half0
    {
        type            cyclic;
    }
    frontAndBack
    {
        type            empty;
    }
}


// ************************************************************************* //
