/*--------------------------------*- C++ -*----------------------------------*\
  =========                 |
  \\      /  F ield         | OpenFOAM: The Open Source CFD Toolbox
   \\    /   O peration     | Website:  https://openfoam.org
    \\  /    A nd           | Version:  9
     \\/     M anipulation  |
\*---------------------------------------------------------------------------*/
FoamFile
{
    format      ascii;
    class       volVectorField;
    location    "0.45";
    object      U;
}
// * * * * * * * * * * * * * * * * * * * * * * * * * * * * * * * * * * * * * //

dimensions      [0 1 -1 0 0 0 0];

internalField   nonuniform List<vector> 
1000
(
(0.439989 0 0)
(0.439989 0 0)
(0.439989 0 0)
(0.439989 0 0)
(0.439989 0 0)
(0.439989 0 0)
(0.439989 0 0)
(0.439989 0 0)
(0.439989 0 0)
(0.439989 0 0)
(0.439989 0 0)
(0.439989 0 0)
(0.439989 0 0)
(0.439989 0 0)
(0.439989 0 0)
(0.439989 0 0)
(0.439989 0 0)
(0.439989 0 0)
(0.439989 0 0)
(0.439989 0 0)
(0.439989 0 0)
(0.439989 0 0)
(0.439989 0 0)
(0.439989 0 0)
(0.439989 0 0)
(0.439989 0 0)
(0.439989 0 0)
(0.439989 0 0)
(0.439989 0 0)
(0.439989 0 0)
(0.439989 0 0)
(0.439989 0 0)
(0.439989 0 0)
(0.439989 0 0)
(0.439989 0 0)
(0.439989 0 0)
(0.439989 0 0)
(0.439989 0 0)
(0.439989 0 0)
(0.439989 0 0)
(0.439989 0 0)
(0.439989 0 0)
(0.439989 0 0)
(0.439989 0 0)
(0.439989 0 0)
(0.439989 0 0)
(0.439989 0 0)
(0.439989 0 0)
(0.439989 0 0)
(0.439989 0 0)
(0.439989 0 0)
(0.439989 0 0)
(0.439989 0 0)
(0.439989 0 0)
(0.439989 0 0)
(0.439989 0 0)
(0.439989 0 0)
(0.439989 0 0)
(0.439989 0 0)
(0.439989 0 0)
(0.439989 0 0)
(0.439989 0 0)
(0.439989 0 0)
(0.439989 0 0)
(0.439989 0 0)
(0.439989 0 0)
(0.439989 0 0)
(0.439989 0 0)
(0.439989 0 0)
(0.439989 0 0)
(0.439989 0 0)
(0.439989 0 0)
(0.439989 0 0)
(0.439989 0 0)
(0.439989 0 0)
(0.439989 0 0)
(0.439989 0 0)
(0.439989 0 0)
(0.439989 0 0)
(0.439989 0 0)
(0.439989 0 0)
(0.439989 0 0)
(0.439989 0 0)
(0.439989 0 0)
(0.439989 0 0)
(0.439989 0 0)
(0.439989 0 0)
(0.439989 0 0)
(0.439989 0 0)
(0.439989 0 0)
(0.439989 0 0)
(0.439989 0 0)
(0.439989 0 0)
(0.439989 0 0)
(0.439989 0 0)
(0.439989 0 0)
(0.439989 0 0)
(0.439989 0 0)
(0.439989 0 0)
(0.439989 0 0)
(0.439989 0 0)
(0.439989 0 0)
(0.439989 0 0)
(0.439989 0 0)
(0.439989 0 0)
(0.439989 0 0)
(0.439989 0 0)
(0.439989 0 0)
(0.439989 0 0)
(0.439989 0 0)
(0.439989 0 0)
(0.439989 0 0)
(0.439989 0 0)
(0.439989 0 0)
(0.43999 0 0)
(0.43999 0 0)
(0.43999 0 0)
(0.43999 0 0)
(0.43999 0 0)
(0.43999 0 0)
(0.43999 0 0)
(0.43999 0 0)
(0.43999 0 0)
(0.43999 0 0)
(0.43999 0 0)
(0.43999 0 0)
(0.43999 0 0)
(0.439991 0 0)
(0.439991 0 0)
(0.439991 0 0)
(0.439991 0 0)
(0.439991 0 0)
(0.439991 0 0)
(0.439991 0 0)
(0.439992 0 0)
(0.439992 0 0)
(0.439992 0 0)
(0.439992 0 0)
(0.439992 0 0)
(0.439993 0 0)
(0.439993 0 0)
(0.439993 0 0)
(0.439994 0 0)
(0.439994 0 0)
(0.439994 0 0)
(0.439995 0 0)
(0.439995 0 0)
(0.439996 0 0)
(0.439996 0 0)
(0.439997 0 0)
(0.439997 0 0)
(0.439998 0 0)
(0.439998 0 0)
(0.439999 0 0)
(0.44 0 0)
(0.44 0 0)
(0.440001 0 0)
(0.440002 0 0)
(0.440003 0 0)
(0.440004 0 0)
(0.440005 0 0)
(0.440006 0 0)
(0.440007 0 0)
(0.440009 0 0)
(0.44001 0 0)
(0.440011 0 0)
(0.440013 0 0)
(0.440014 0 0)
(0.440016 0 0)
(0.440018 0 0)
(0.44002 0 0)
(0.440022 0 0)
(0.440024 0 0)
(0.440026 0 0)
(0.440029 0 0)
(0.440031 0 0)
(0.440034 0 0)
(0.440037 0 0)
(0.44004 0 0)
(0.440044 0 0)
(0.440047 0 0)
(0.440051 0 0)
(0.440055 0 0)
(0.440059 0 0)
(0.440064 0 0)
(0.440068 0 0)
(0.440073 0 0)
(0.440079 0 0)
(0.440084 0 0)
(0.44009 0 0)
(0.440096 0 0)
(0.440103 0 0)
(0.44011 0 0)
(0.440118 0 0)
(0.440125 0 0)
(0.440134 0 0)
(0.440143 0 0)
(0.440152 0 0)
(0.440162 0 0)
(0.440172 0 0)
(0.440183 0 0)
(0.440195 0 0)
(0.440207 0 0)
(0.44022 0 0)
(0.440233 0 0)
(0.440248 0 0)
(0.440263 0 0)
(0.440279 0 0)
(0.440296 0 0)
(0.440314 0 0)
(0.440332 0 0)
(0.440352 0 0)
(0.440373 0 0)
(0.440395 0 0)
(0.440418 0 0)
(0.440442 0 0)
(0.440468 0 0)
(0.440494 0 0)
(0.440523 0 0)
(0.440552 0 0)
(0.440584 0 0)
(0.440616 0 0)
(0.440651 0 0)
(0.440687 0 0)
(0.440725 0 0)
(0.440765 0 0)
(0.440807 0 0)
(0.440851 0 0)
(0.440898 0 0)
(0.440946 0 0)
(0.440997 0 0)
(0.441051 0 0)
(0.441107 0 0)
(0.441166 0 0)
(0.441227 0 0)
(0.441292 0 0)
(0.441359 0 0)
(0.44143 0 0)
(0.441504 0 0)
(0.441582 0 0)
(0.441663 0 0)
(0.441748 0 0)
(0.441837 0 0)
(0.44193 0 0)
(0.442028 0 0)
(0.442129 0 0)
(0.442236 0 0)
(0.442347 0 0)
(0.442463 0 0)
(0.442584 0 0)
(0.442711 0 0)
(0.442843 0 0)
(0.442981 0 0)
(0.443125 0 0)
(0.443275 0 0)
(0.443432 0 0)
(0.443595 0 0)
(0.443766 0 0)
(0.443943 0 0)
(0.444128 0 0)
(0.444321 0 0)
(0.444522 0 0)
(0.444731 0 0)
(0.444949 0 0)
(0.445176 0 0)
(0.445412 0 0)
(0.445657 0 0)
(0.445912 0 0)
(0.446178 0 0)
(0.446454 0 0)
(0.446741 0 0)
(0.447039 0 0)
(0.447349 0 0)
(0.44767 0 0)
(0.448005 0 0)
(0.448351 0 0)
(0.448712 0 0)
(0.449085 0 0)
(0.449473 0 0)
(0.449875 0 0)
(0.450293 0 0)
(0.450725 0 0)
(0.451173 0 0)
(0.451638 0 0)
(0.452119 0 0)
(0.452618 0 0)
(0.453134 0 0)
(0.453669 0 0)
(0.454222 0 0)
(0.454795 0 0)
(0.455388 0 0)
(0.456001 0 0)
(0.456635 0 0)
(0.45729 0 0)
(0.457968 0 0)
(0.458668 0 0)
(0.459391 0 0)
(0.460139 0 0)
(0.460911 0 0)
(0.461708 0 0)
(0.46253 0 0)
(0.463379 0 0)
(0.464255 0 0)
(0.465159 0 0)
(0.466091 0 0)
(0.467052 0 0)
(0.468043 0 0)
(0.469064 0 0)
(0.470116 0 0)
(0.4712 0 0)
(0.472316 0 0)
(0.473466 0 0)
(0.474649 0 0)
(0.475867 0 0)
(0.47712 0 0)
(0.47841 0 0)
(0.479736 0 0)
(0.4811 0 0)
(0.482502 0 0)
(0.483943 0 0)
(0.485424 0 0)
(0.486945 0 0)
(0.488508 0 0)
(0.490113 0 0)
(0.491761 0 0)
(0.493453 0 0)
(0.495189 0 0)
(0.49697 0 0)
(0.498798 0 0)
(0.500672 0 0)
(0.502593 0 0)
(0.504564 0 0)
(0.506583 0 0)
(0.508652 0 0)
(0.510772 0 0)
(0.512943 0 0)
(0.515167 0 0)
(0.517444 0 0)
(0.519774 0 0)
(0.52216 0 0)
(0.5246 0 0)
(0.527097 0 0)
(0.52965 0 0)
(0.532262 0 0)
(0.534931 0 0)
(0.53766 0 0)
(0.540449 0 0)
(0.543298 0 0)
(0.546209 0 0)
(0.549182 0 0)
(0.552217 0 0)
(0.555317 0 0)
(0.55848 0 0)
(0.561708 0 0)
(0.565002 0 0)
(0.568362 0 0)
(0.571789 0 0)
(0.575283 0 0)
(0.578846 0 0)
(0.582478 0 0)
(0.586179 0 0)
(0.58995 0 0)
(0.593792 0 0)
(0.597705 0 0)
(0.60169 0 0)
(0.605747 0 0)
(0.609877 0 0)
(0.614081 0 0)
(0.618359 0 0)
(0.622712 0 0)
(0.627139 0 0)
(0.631642 0 0)
(0.636221 0 0)
(0.640877 0 0)
(0.645609 0 0)
(0.650419 0 0)
(0.655307 0 0)
(0.660273 0 0)
(0.665317 0 0)
(0.67044 0 0)
(0.675643 0 0)
(0.680925 0 0)
(0.686288 0 0)
(0.69173 0 0)
(0.697253 0 0)
(0.702857 0 0)
(0.708543 0 0)
(0.714309 0 0)
(0.720157 0 0)
(0.726088 0 0)
(0.7321 0 0)
(0.738194 0 0)
(0.744371 0 0)
(0.75063 0 0)
(0.756973 0 0)
(0.763398 0 0)
(0.769906 0 0)
(0.776497 0 0)
(0.783171 0 0)
(0.789929 0 0)
(0.796769 0 0)
(0.803694 0 0)
(0.810701 0 0)
(0.817792 0 0)
(0.824967 0 0)
(0.832224 0 0)
(0.839565 0 0)
(0.84699 0 0)
(0.854497 0 0)
(0.862088 0 0)
(0.869762 0 0)
(0.877519 0 0)
(0.885359 0 0)
(0.893281 0 0)
(0.901287 0 0)
(0.909374 0 0)
(0.917544 0 0)
(0.925796 0 0)
(0.93413 0 0)
(0.942546 0 0)
(0.951044 0 0)
(0.959623 0 0)
(0.968283 0 0)
(0.977024 0 0)
(0.985845 0 0)
(0.994747 0 0)
(1.00373 0 0)
(1.01279 0 0)
(1.02193 0 0)
(1.03115 0 0)
(1.04045 0 0)
(1.04983 0 0)
(1.05929 0 0)
(1.06882 0 0)
(1.07844 0 0)
(1.08813 0 0)
(1.09789 0 0)
(1.10774 0 0)
(1.11766 0 0)
(1.12765 0 0)
(1.13772 0 0)
(1.14787 0 0)
(1.15809 0 0)
(1.16838 0 0)
(1.17875 0 0)
(1.18919 0 0)
(1.19971 0 0)
(1.2103 0 0)
(1.22096 0 0)
(1.23169 0 0)
(1.2425 0 0)
(1.25337 0 0)
(1.26431 0 0)
(1.27533 0 0)
(1.28641 0 0)
(1.29757 0 0)
(1.30879 0 0)
(1.32008 0 0)
(1.33144 0 0)
(1.34287 0 0)
(1.35436 0 0)
(1.36592 0 0)
(1.37754 0 0)
(1.38923 0 0)
(1.40099 0 0)
(1.41281 0 0)
(1.42469 0 0)
(1.43664 0 0)
(1.44865 0 0)
(1.46073 0 0)
(1.47286 0 0)
(1.48506 0 0)
(1.49731 0 0)
(1.50963 0 0)
(1.52201 0 0)
(1.53445 0 0)
(1.54695 0 0)
(1.5595 0 0)
(1.57212 0 0)
(1.58479 0 0)
(1.59752 0 0)
(1.61031 0 0)
(1.62315 0 0)
(1.63605 0 0)
(1.649 0 0)
(1.66201 0 0)
(1.67507 0 0)
(1.68819 0 0)
(1.70136 0 0)
(1.71458 0 0)
(1.72786 0 0)
(1.74118 0 0)
(1.75456 0 0)
(1.76799 0 0)
(1.78147 0 0)
(1.795 0 0)
(1.80858 0 0)
(1.82221 0 0)
(1.83589 0 0)
(1.84961 0 0)
(1.86339 0 0)
(1.87721 0 0)
(1.89108 0 0)
(1.90499 0 0)
(1.91895 0 0)
(1.93296 0 0)
(1.94701 0 0)
(1.9611 0 0)
(1.97524 0 0)
(1.98942 0 0)
(2.00365 0 0)
(2.01792 0 0)
(2.03223 0 0)
(2.04658 0 0)
(2.06098 0 0)
(2.07541 0 0)
(2.08989 0 0)
(2.1044 0 0)
(2.11896 0 0)
(2.13355 0 0)
(2.14819 0 0)
(2.16286 0 0)
(2.17757 0 0)
(2.19232 0 0)
(2.2071 0 0)
(2.22193 0 0)
(2.23678 0 0)
(2.25168 0 0)
(2.26661 0 0)
(2.28157 0 0)
(2.29657 0 0)
(2.3116 0 0)
(2.32667 0 0)
(2.34177 0 0)
(2.3569 0 0)
(2.37207 0 0)
(2.38727 0 0)
(2.4025 0 0)
(2.41776 0 0)
(2.43305 0 0)
(2.44837 0 0)
(2.46373 0 0)
(2.47911 0 0)
(2.49452 0 0)
(2.50996 0 0)
(2.52543 0 0)
(2.54093 0 0)
(2.55645 0 0)
(2.572 0 0)
(2.58758 0 0)
(2.60319 0 0)
(2.61882 0 0)
(2.63447 0 0)
(2.65015 0 0)
(2.66586 0 0)
(2.68159 0 0)
(2.69734 0 0)
(2.71312 0 0)
(2.72892 0 0)
(2.74474 0 0)
(2.76059 0 0)
(2.77646 0 0)
(2.79234 0 0)
(2.80825 0 0)
(2.82418 0 0)
(2.84013 0 0)
(2.85609 0 0)
(2.87208 0 0)
(2.88808 0 0)
(2.9041 0 0)
(2.92014 0 0)
(2.93619 0 0)
(2.95226 0 0)
(2.96835 0 0)
(2.98445 0 0)
(3.00057 0 0)
(3.0167 0 0)
(3.03284 0 0)
(3.04899 0 0)
(3.06516 0 0)
(3.08134 0 0)
(3.09753 0 0)
(3.11372 0 0)
(3.12993 0 0)
(3.14615 0 0)
(3.16237 0 0)
(3.1786 0 0)
(3.19484 0 0)
(3.21108 0 0)
(3.22732 0 0)
(3.24357 0 0)
(3.25982 0 0)
(3.27608 0 0)
(3.29233 0 0)
(3.30858 0 0)
(3.32484 0 0)
(3.34109 0 0)
(3.35733 0 0)
(3.37357 0 0)
(3.38981 0 0)
(3.40604 0 0)
(3.42226 0 0)
(3.43846 0 0)
(3.45466 0 0)
(3.47084 0 0)
(3.48701 0 0)
(3.50317 0 0)
(3.5193 0 0)
(3.53542 0 0)
(3.55151 0 0)
(3.56758 0 0)
(3.58362 0 0)
(3.59964 0 0)
(3.61562 0 0)
(3.63157 0 0)
(3.64749 0 0)
(3.66337 0 0)
(3.67921 0 0)
(3.69501 0 0)
(3.71076 0 0)
(3.72646 0 0)
(3.7421 0 0)
(3.75769 0 0)
(3.77322 0 0)
(3.78869 0 0)
(3.80409 0 0)
(3.81942 0 0)
(3.83467 0 0)
(3.84984 0 0)
(3.86492 0 0)
(3.87991 0 0)
(3.89481 0 0)
(3.9096 0 0)
(3.92429 0 0)
(3.93886 0 0)
(3.9533 0 0)
(3.96762 0 0)
(3.98181 0 0)
(3.99585 0 0)
(4.00974 0 0)
(4.02347 0 0)
(4.03703 0 0)
(4.05041 0 0)
(4.06361 0 0)
(4.0766 0 0)
(4.08938 0 0)
(4.10195 0 0)
(4.11428 0 0)
(4.12636 0 0)
(4.13819 0 0)
(4.14974 0 0)
(4.161 0 0)
(4.17196 0 0)
(4.1826 0 0)
(4.1929 0 0)
(4.20284 0 0)
(4.21241 0 0)
(4.22159 0 0)
(4.23036 0 0)
(4.23869 0 0)
(4.24656 0 0)
(4.25395 0 0)
(4.26083 0 0)
(4.26719 0 0)
(4.27298 0 0)
(4.27819 0 0)
(4.28278 0 0)
(4.28673 0 0)
(4.29 0 0)
(4.29257 0 0)
(4.29439 0 0)
(4.29543 0 0)
(4.29566 0 0)
(4.29504 0 0)
(4.29353 0 0)
(4.29109 0 0)
(4.28769 0 0)
(4.28327 0 0)
(4.27781 0 0)
(4.27124 0 0)
(4.26355 0 0)
(4.25466 0 0)
(4.24455 0 0)
(4.23317 0 0)
(4.22047 0 0)
(4.20641 0 0)
(4.19095 0 0)
(4.17403 0 0)
(4.15562 0 0)
(4.13568 0 0)
(4.11416 0 0)
(4.09103 0 0)
(4.06624 0 0)
(4.03978 0 0)
(4.0116 0 0)
(3.98167 0 0)
(3.94998 0 0)
(3.91651 0 0)
(3.88124 0 0)
(3.84416 0 0)
(3.80526 0 0)
(3.76456 0 0)
(3.72205 0 0)
(3.67775 0 0)
(3.63169 0 0)
(3.58389 0 0)
(3.53439 0 0)
(3.48323 0 0)
(3.43047 0 0)
(3.37617 0 0)
(3.32039 0 0)
(3.26321 0 0)
(3.20471 0 0)
(3.14498 0 0)
(3.08413 0 0)
(3.02225 0 0)
(2.95945 0 0)
(2.89584 0 0)
(2.83156 0 0)
(2.76671 0 0)
(2.70142 0 0)
(2.63583 0 0)
(2.57006 0 0)
(2.50424 0 0)
(2.43849 0 0)
(2.37296 0 0)
(2.30775 0 0)
(2.243 0 0)
(2.17882 0 0)
(2.11533 0 0)
(2.05263 0 0)
(1.99082 0 0)
(1.93 0 0)
(1.87027 0 0)
(1.81169 0 0)
(1.75435 0 0)
(1.69831 0 0)
(1.64363 0 0)
(1.59036 0 0)
(1.53855 0 0)
(1.48823 0 0)
(1.43943 0 0)
(1.39216 0 0)
(1.34646 0 0)
(1.30231 0 0)
(1.25973 0 0)
(1.21872 0 0)
(1.17925 0 0)
(1.14132 0 0)
(1.10492 0 0)
(1.07001 0 0)
(1.03657 0 0)
(1.00458 0 0)
(0.973997 0 0)
(0.944792 0 0)
(0.916928 0 0)
(0.890367 0 0)
(0.865071 0 0)
(0.840998 0 0)
(0.818108 0 0)
(0.796359 0 0)
(0.775711 0 0)
(0.756121 0 0)
(0.737548 0 0)
(0.71995 0 0)
(0.703288 0 0)
(0.687522 0 0)
(0.672611 0 0)
(0.658518 0 0)
(0.645206 0 0)
(0.632637 0 0)
(0.620776 0 0)
(0.609589 0 0)
(0.599043 0 0)
(0.589106 0 0)
(0.579747 0 0)
(0.570935 0 0)
(0.562643 0 0)
(0.554843 0 0)
(0.547509 0 0)
(0.540615 0 0)
(0.534138 0 0)
(0.528055 0 0)
(0.522343 0 0)
(0.516982 0 0)
(0.511952 0 0)
(0.507234 0 0)
(0.50281 0 0)
(0.498663 0 0)
(0.494777 0 0)
(0.491137 0 0)
(0.487728 0 0)
(0.484536 0 0)
(0.481548 0 0)
(0.478752 0 0)
(0.476137 0 0)
(0.473691 0 0)
(0.471403 0 0)
(0.469265 0 0)
(0.467267 0 0)
(0.465401 0 0)
(0.463657 0 0)
(0.462028 0 0)
(0.460508 0 0)
(0.459089 0 0)
(0.457764 0 0)
(0.456529 0 0)
(0.455376 0 0)
(0.454301 0 0)
(0.453298 0 0)
(0.452364 0 0)
(0.451493 0 0)
(0.450682 0 0)
(0.449926 0 0)
(0.449221 0 0)
(0.448566 0 0)
(0.447955 0 0)
(0.447387 0 0)
(0.446858 0 0)
(0.446365 0 0)
(0.445907 0 0)
(0.445481 0 0)
(0.445085 0 0)
(0.444717 0 0)
(0.444375 0 0)
(0.444056 0 0)
(0.44376 0 0)
(0.443486 0 0)
(0.44323 0 0)
(0.442993 0 0)
(0.442773 0 0)
(0.442569 0 0)
(0.442379 0 0)
(0.442203 0 0)
(0.442039 0 0)
(0.441887 0 0)
(0.441747 0 0)
(0.441616 0 0)
(0.441495 0 0)
(0.441383 0 0)
(0.441279 0 0)
(0.441182 0 0)
(0.441093 0 0)
(0.44101 0 0)
(0.440933 0 0)
(0.440862 0 0)
(0.440796 0 0)
(0.440735 0 0)
(0.440679 0 0)
(0.440627 0 0)
(0.440578 0 0)
(0.440533 0 0)
(0.440492 0 0)
(0.440454 0 0)
(0.440418 0 0)
(0.440385 0 0)
(0.440355 0 0)
(0.440327 0 0)
(0.440301 0 0)
(0.440277 0 0)
(0.440255 0 0)
(0.440234 0 0)
(0.440215 0 0)
(0.440198 0 0)
(0.440182 0 0)
(0.440167 0 0)
(0.440153 0 0)
(0.44014 0 0)
(0.440128 0 0)
(0.440118 0 0)
(0.440107 0 0)
(0.440098 0 0)
(0.44009 0 0)
(0.440082 0 0)
(0.440075 0 0)
(0.440068 0 0)
(0.440062 0 0)
(0.440056 0 0)
(0.440051 0 0)
(0.440046 0 0)
(0.440041 0 0)
(0.440037 0 0)
(0.440033 0 0)
(0.44003 0 0)
(0.440027 0 0)
(0.440024 0 0)
(0.440021 0 0)
(0.440018 0 0)
(0.440016 0 0)
(0.440014 0 0)
(0.440012 0 0)
(0.44001 0 0)
(0.440008 0 0)
(0.440007 0 0)
(0.440005 0 0)
(0.440004 0 0)
(0.440003 0 0)
(0.440002 0 0)
(0.440001 0 0)
(0.44 0 0)
(0.439999 0 0)
(0.439998 0 0)
(0.439997 0 0)
(0.439997 0 0)
(0.439996 0 0)
(0.439995 0 0)
(0.439995 0 0)
(0.439994 0 0)
(0.439994 0 0)
(0.439994 0 0)
(0.439993 0 0)
(0.439993 0 0)
(0.439993 0 0)
(0.439992 0 0)
(0.439992 0 0)
(0.439992 0 0)
(0.439991 0 0)
(0.439991 0 0)
(0.439991 0 0)
(0.439991 0 0)
(0.439991 0 0)
(0.439991 0 0)
(0.43999 0 0)
(0.43999 0 0)
(0.43999 0 0)
(0.43999 0 0)
(0.43999 0 0)
(0.43999 0 0)
(0.43999 0 0)
(0.43999 0 0)
(0.43999 0 0)
(0.43999 0 0)
(0.43999 0 0)
(0.43999 0 0)
(0.439989 0 0)
(0.439989 0 0)
(0.439989 0 0)
(0.439989 0 0)
(0.439989 0 0)
(0.439989 0 0)
(0.439989 0 0)
(0.439989 0 0)
(0.439989 0 0)
(0.439989 0 0)
(0.439989 0 0)
(0.439989 0 0)
(0.439989 0 0)
(0.439989 0 0)
(0.439989 0 0)
(0.439989 0 0)
(0.439989 0 0)
(0.439989 0 0)
(0.439989 0 0)
(0.439989 0 0)
(0.439989 0 0)
(0.439989 0 0)
(0.439989 0 0)
(0.439989 0 0)
(0.439989 0 0)
(0.439989 0 0)
(0.439989 0 0)
(0.439989 0 0)
(0.439989 0 0)
(0.439989 0 0)
(0.439989 0 0)
(0.439989 0 0)
(0.439989 0 0)
(0.439989 0 0)
(0.439989 0 0)
(0.439989 0 0)
(0.439989 0 0)
(0.439989 0 0)
(0.439989 0 0)
(0.439989 0 0)
(0.439989 0 0)
(0.439989 0 0)
(0.439989 0 0)
(0.439989 0 0)
(0.439989 0 0)
(0.439989 0 0)
(0.439989 0 0)
(0.439989 0 0)
(0.439989 0 0)
(0.439989 0 0)
(0.439989 0 0)
(0.439989 0 0)
(0.439989 0 0)
(0.439989 0 0)
(0.439989 0 0)
(0.439989 0 0)
(0.439989 0 0)
(0.439989 0 0)
(0.439989 0 0)
(0.439989 0 0)
(0.439989 0 0)
(0.439989 0 0)
(0.439989 0 0)
(0.439989 0 0)
(0.439989 0 0)
(0.439989 0 0)
)
;

boundaryField
{
    topWall
    {
        type            empty;
    }
    bottomWall
    {
        type            empty;
    }
    leftAndRight_half1
    {
        type            cyclic;
    }
    leftAndRight_half0
    {
        type            cyclic;
    }
    frontAndBack
    {
        type            empty;
    }
}


// ************************************************************************* //
