/*--------------------------------*- C++ -*----------------------------------*\
  =========                 |
  \\      /  F ield         | OpenFOAM: The Open Source CFD Toolbox
   \\    /   O peration     | Website:  https://openfoam.org
    \\  /    A nd           | Version:  9
     \\/     M anipulation  |
\*---------------------------------------------------------------------------*/
FoamFile
{
    format      ascii;
    class       volScalarField;
    location    "0.4";
    object      f_1;
}
// * * * * * * * * * * * * * * * * * * * * * * * * * * * * * * * * * * * * * //

dimensions      [1 -3 0 0 0 0 0];

internalField   nonuniform List<scalar> 
1000
(
168.881
168.881
168.881
168.881
168.881
168.881
168.881
168.881
168.881
168.881
168.881
168.881
168.881
168.881
168.881
168.881
168.881
168.881
168.881
168.881
168.881
168.881
168.881
168.881
168.881
168.881
168.881
168.881
168.881
168.881
168.881
168.881
168.881
168.881
168.881
168.881
168.881
168.881
168.881
168.881
168.881
168.881
168.881
168.881
168.881
168.881
168.881
168.881
168.881
168.881
168.881
168.881
168.881
168.881
168.881
168.881
168.881
168.881
168.881
168.881
168.881
168.881
168.881
168.881
168.881
168.881
168.881
168.881
168.881
168.881
168.881
168.881
168.881
168.881
168.881
168.881
168.881
168.881
168.881
168.881
168.881
168.881
168.881
168.881
168.881
168.881
168.881
168.881
168.881
168.881
168.881
168.881
168.881
168.881
168.881
168.881
168.881
168.881
168.881
168.881
168.881
168.881
168.881
168.881
168.881
168.881
168.881
168.881
168.881
168.881
168.881
168.881
168.881
168.881
168.881
168.881
168.881
168.881
168.881
168.881
168.881
168.881
168.881
168.881
168.881
168.881
168.881
168.881
168.881
168.881
168.881
168.881
168.881
168.881
168.881
168.881
168.881
168.881
168.881
168.881
168.881
168.881
168.881
168.881
168.881
168.881
168.881
168.881
168.881
168.881
168.881
168.881
168.881
168.881
168.881
168.881
168.881
168.881
168.881
168.881
168.881
168.881
168.881
168.881
168.881
168.881
168.881
168.881
168.881
168.881
168.881
168.881
168.881
168.881
168.881
168.881
168.881
168.881
168.881
168.881
168.881
168.881
168.881
168.881
168.881
168.881
168.881
168.881
168.881
168.881
168.881
168.881
168.881
168.881
168.882
168.882
168.882
168.882
168.882
168.882
168.882
168.882
168.882
168.882
168.882
168.882
168.882
168.882
168.882
168.882
168.882
168.882
168.882
168.882
168.882
168.882
168.882
168.883
168.883
168.883
168.883
168.883
168.883
168.883
168.883
168.883
168.884
168.884
168.884
168.884
168.884
168.884
168.884
168.885
168.885
168.885
168.885
168.886
168.886
168.886
168.886
168.887
168.887
168.887
168.888
168.888
168.888
168.889
168.889
168.889
168.89
168.89
168.891
168.891
168.892
168.892
168.893
168.894
168.894
168.895
168.896
168.896
168.897
168.898
168.899
168.9
168.901
168.902
168.903
168.904
168.905
168.906
168.907
168.908
168.91
168.911
168.913
168.914
168.916
168.917
168.919
168.921
168.922
168.924
168.926
168.928
168.93
168.933
168.935
168.937
168.94
168.942
168.945
168.948
168.951
168.954
168.957
168.96
168.963
168.967
168.97
168.974
168.978
168.982
168.986
168.99
168.995
168.999
169.004
169.009
169.014
169.019
169.024
169.03
169.035
169.041
169.047
169.054
169.06
169.067
169.074
169.081
169.088
169.095
169.103
169.111
169.119
169.128
169.136
169.145
169.155
169.164
169.174
169.184
169.194
169.204
169.215
169.226
169.238
169.249
169.261
169.274
169.286
169.299
169.312
169.326
169.34
169.354
169.369
169.383
169.399
169.414
169.43
169.447
169.463
169.48
169.498
169.516
169.534
169.553
169.572
169.591
169.611
169.631
169.652
169.673
169.694
169.716
169.739
169.762
169.785
169.808
169.832
169.857
169.882
169.908
169.933
169.96
169.987
170.014
170.042
170.07
170.099
170.128
170.158
170.188
170.218
170.249
170.281
170.313
170.346
170.379
170.412
170.446
170.481
170.516
170.552
170.588
170.624
170.661
170.699
170.737
170.776
170.815
170.855
170.895
170.935
170.977
171.018
171.06
171.103
171.146
171.19
171.234
171.279
171.324
171.37
171.416
171.463
171.51
171.558
171.606
171.655
171.704
171.754
171.805
171.855
171.907
171.958
172.011
172.064
172.117
172.171
172.225
172.28
172.335
172.391
172.447
172.503
172.561
172.618
172.676
172.735
172.794
172.854
172.914
172.974
173.035
173.097
173.158
173.221
173.283
173.347
173.41
173.475
173.539
173.604
173.67
173.735
173.802
173.869
173.936
174.003
174.071
174.14
174.209
174.278
174.348
174.418
174.488
174.559
174.631
174.702
174.775
174.847
174.92
174.993
175.067
175.141
175.216
175.29
175.366
175.441
175.517
175.594
175.67
175.747
175.825
175.903
175.981
176.059
176.138
176.217
176.297
176.377
176.457
176.538
176.619
176.7
176.781
176.863
176.945
177.028
177.111
177.194
177.278
177.361
177.445
177.53
177.615
177.7
177.785
177.871
177.956
178.043
178.129
178.216
178.303
178.39
178.478
178.566
178.654
178.742
178.831
178.92
179.009
179.099
179.189
179.279
179.369
179.459
179.55
179.641
179.733
179.824
179.916
180.008
180.1
180.192
180.285
180.378
180.471
180.565
180.658
180.752
180.846
180.94
181.035
181.129
181.224
181.319
181.414
181.51
181.605
181.701
181.797
181.893
181.99
182.086
182.183
182.28
182.377
182.474
182.572
182.669
182.767
182.865
182.963
183.061
183.159
183.258
183.356
183.455
183.554
183.653
183.752
183.851
183.95
184.05
184.149
184.249
184.348
184.448
184.548
184.648
184.748
184.848
184.948
185.048
185.148
185.248
185.348
185.448
185.548
185.648
185.748
185.849
185.949
186.048
186.148
186.248
186.348
186.447
186.547
186.646
186.745
186.844
186.943
187.042
187.14
187.238
187.336
187.434
187.531
187.628
187.724
187.82
187.916
188.011
188.106
188.2
188.294
188.387
188.479
188.571
188.662
188.752
188.841
188.93
189.017
189.104
189.189
189.273
189.356
189.438
189.518
189.597
189.675
189.751
189.825
189.897
189.967
190.035
190.102
190.165
190.227
190.286
190.342
190.395
190.446
190.493
190.537
190.577
190.614
190.646
190.675
190.699
190.719
190.734
190.744
190.749
190.748
190.742
190.729
190.71
190.685
190.652
190.613
190.566
190.511
190.448
190.376
190.296
190.207
190.109
190.001
189.883
189.755
189.616
189.467
189.308
189.137
188.954
188.761
188.556
188.339
188.111
187.871
187.619
187.357
187.082
186.797
186.501
186.194
185.877
185.55
185.214
184.869
184.516
184.155
183.788
183.414
183.035
182.651
182.263
181.872
181.479
181.085
180.69
180.296
179.903
179.512
179.124
178.74
178.36
177.985
177.616
177.254
176.899
176.551
176.211
175.88
175.558
175.244
174.94
174.646
174.361
174.086
173.821
173.565
173.32
173.084
172.858
172.641
172.434
172.237
172.048
171.868
171.696
171.533
171.378
171.231
171.091
170.958
170.833
170.714
170.602
170.496
170.395
170.301
170.211
170.127
170.048
169.973
169.903
169.837
169.775
169.717
169.662
169.61
169.562
169.517
169.474
169.435
169.398
169.363
169.33
169.3
169.271
169.244
169.219
169.196
169.174
169.154
169.135
169.117
169.101
169.085
169.071
169.058
169.045
169.033
169.023
169.012
169.003
168.994
168.986
168.979
168.972
168.965
168.959
168.953
168.948
168.943
168.939
168.934
168.93
168.927
168.923
168.92
168.917
168.915
168.912
168.91
168.908
168.906
168.904
168.902
168.901
168.899
168.898
168.897
168.895
168.894
168.893
168.892
168.892
168.891
168.89
168.889
168.889
168.888
168.888
168.887
168.887
168.886
168.886
168.885
168.885
168.885
168.885
168.884
168.884
168.884
168.884
168.883
168.883
168.883
168.883
168.883
168.883
168.883
168.882
168.882
168.882
168.882
168.882
168.882
168.882
168.882
168.882
168.882
168.882
168.882
168.882
168.882
168.882
168.882
168.882
168.882
168.881
168.881
168.881
168.881
168.881
168.881
168.881
168.881
168.881
168.881
168.881
168.881
168.881
168.881
168.881
168.881
168.881
168.881
168.881
168.881
168.881
168.881
168.881
168.881
168.881
168.881
168.881
168.881
168.881
168.881
168.881
168.881
168.881
168.881
168.881
168.881
168.881
168.881
168.881
168.881
168.881
168.881
168.881
168.881
168.881
168.881
168.881
168.881
168.881
168.881
168.881
168.881
168.881
168.881
168.881
168.881
168.881
168.881
168.881
168.881
168.881
168.881
168.881
168.881
168.881
168.881
168.881
168.881
168.881
168.881
168.881
168.881
168.881
168.881
168.881
168.881
168.881
168.881
168.881
168.881
168.881
168.881
168.881
168.881
168.881
168.881
168.881
168.881
168.881
168.881
168.881
168.881
168.881
168.881
168.881
168.881
168.881
168.881
168.881
168.881
168.881
168.881
168.881
168.881
168.881
168.881
168.881
168.881
168.881
168.881
168.881
168.881
168.881
168.881
168.881
168.881
168.881
168.881
168.881
168.881
168.881
168.881
168.881
168.881
168.881
168.881
168.881
168.881
168.881
168.881
168.881
168.881
168.881
168.881
168.881
168.881
168.881
168.881
168.881
168.881
)
;

boundaryField
{
    topWall
    {
        type            empty;
    }
    bottomWall
    {
        type            empty;
    }
    leftAndRight_half1
    {
        type            cyclic;
    }
    leftAndRight_half0
    {
        type            cyclic;
    }
    frontAndBack
    {
        type            empty;
    }
}


// ************************************************************************* //
