/*--------------------------------*- C++ -*----------------------------------*\
  =========                 |
  \\      /  F ield         | OpenFOAM: The Open Source CFD Toolbox
   \\    /   O peration     | Website:  https://openfoam.org
    \\  /    A nd           | Version:  9
     \\/     M anipulation  |
\*---------------------------------------------------------------------------*/
FoamFile
{
    format      ascii;
    class       volScalarField;
    location    "0.4";
    object      f_2;
}
// * * * * * * * * * * * * * * * * * * * * * * * * * * * * * * * * * * * * * //

dimensions      [1 -3 0 0 0 0 0];

internalField   nonuniform List<scalar> 
1000
(
164.481
164.481
164.481
164.481
164.481
164.481
164.481
164.481
164.481
164.481
164.481
164.481
164.481
164.481
164.481
164.481
164.481
164.481
164.481
164.481
164.481
164.481
164.481
164.481
164.481
164.481
164.481
164.481
164.481
164.481
164.481
164.481
164.481
164.481
164.481
164.481
164.481
164.481
164.481
164.481
164.481
164.481
164.481
164.481
164.481
164.481
164.481
164.481
164.481
164.481
164.481
164.481
164.481
164.481
164.481
164.481
164.481
164.481
164.481
164.481
164.481
164.481
164.481
164.481
164.481
164.481
164.481
164.481
164.481
164.481
164.481
164.481
164.481
164.481
164.481
164.481
164.481
164.481
164.481
164.481
164.481
164.481
164.481
164.481
164.481
164.481
164.481
164.481
164.481
164.481
164.481
164.481
164.481
164.481
164.481
164.481
164.481
164.481
164.481
164.481
164.481
164.481
164.481
164.481
164.481
164.481
164.481
164.481
164.481
164.481
164.481
164.481
164.481
164.481
164.481
164.481
164.481
164.481
164.481
164.481
164.481
164.481
164.481
164.481
164.481
164.481
164.481
164.481
164.481
164.481
164.481
164.481
164.481
164.481
164.481
164.481
164.481
164.481
164.481
164.481
164.481
164.481
164.481
164.481
164.481
164.481
164.481
164.481
164.481
164.481
164.481
164.481
164.481
164.481
164.481
164.481
164.481
164.481
164.481
164.481
164.481
164.481
164.481
164.481
164.481
164.481
164.481
164.481
164.481
164.481
164.481
164.481
164.481
164.481
164.481
164.481
164.481
164.481
164.481
164.481
164.481
164.481
164.481
164.481
164.481
164.481
164.481
164.481
164.481
164.481
164.481
164.481
164.481
164.481
164.481
164.481
164.481
164.481
164.481
164.481
164.481
164.481
164.481
164.481
164.48
164.48
164.48
164.48
164.48
164.48
164.48
164.48
164.48
164.48
164.48
164.48
164.48
164.48
164.48
164.479
164.479
164.479
164.479
164.479
164.479
164.479
164.479
164.478
164.478
164.478
164.478
164.478
164.477
164.477
164.477
164.477
164.477
164.476
164.476
164.476
164.475
164.475
164.475
164.474
164.474
164.474
164.473
164.473
164.472
164.472
164.471
164.471
164.47
164.47
164.469
164.469
164.468
164.467
164.467
164.466
164.465
164.464
164.463
164.463
164.462
164.461
164.46
164.459
164.457
164.456
164.455
164.454
164.453
164.451
164.45
164.448
164.447
164.445
164.443
164.442
164.44
164.438
164.436
164.434
164.432
164.43
164.427
164.425
164.423
164.42
164.417
164.415
164.412
164.409
164.406
164.403
164.399
164.396
164.392
164.389
164.385
164.381
164.377
164.373
164.368
164.364
164.359
164.354
164.349
164.344
164.339
164.333
164.328
164.322
164.316
164.31
164.303
164.297
164.29
164.283
164.276
164.268
164.261
164.253
164.245
164.236
164.228
164.219
164.21
164.201
164.191
164.181
164.171
164.161
164.15
164.139
164.128
164.117
164.105
164.093
164.08
164.068
164.055
164.041
164.028
164.014
163.999
163.985
163.97
163.954
163.939
163.923
163.906
163.89
163.873
163.855
163.837
163.819
163.8
163.781
163.762
163.742
163.722
163.701
163.68
163.659
163.637
163.615
163.592
163.569
163.546
163.522
163.498
163.473
163.448
163.422
163.396
163.37
163.343
163.315
163.287
163.259
163.23
163.201
163.172
163.141
163.111
163.08
163.048
163.016
162.984
162.951
162.918
162.884
162.85
162.815
162.78
162.744
162.708
162.671
162.634
162.597
162.559
162.52
162.482
162.442
162.402
162.362
162.321
162.28
162.238
162.196
162.153
162.11
162.067
162.023
161.978
161.933
161.888
161.842
161.796
161.749
161.702
161.654
161.606
161.558
161.509
161.459
161.41
161.359
161.309
161.258
161.206
161.154
161.102
161.049
160.996
160.942
160.888
160.834
160.779
160.724
160.668
160.612
160.556
160.499
160.442
160.384
160.326
160.268
160.209
160.15
160.091
160.031
159.971
159.91
159.85
159.788
159.727
159.665
159.603
159.54
159.477
159.414
159.35
159.286
159.222
159.158
159.093
159.027
158.962
158.896
158.83
158.764
158.697
158.63
158.563
158.495
158.427
158.359
158.291
158.222
158.153
158.084
158.014
157.944
157.874
157.804
157.734
157.663
157.592
157.521
157.449
157.377
157.305
157.233
157.161
157.088
157.015
156.942
156.869
156.795
156.721
156.648
156.573
156.499
156.424
156.35
156.275
156.2
156.124
156.049
155.973
155.897
155.821
155.745
155.669
155.592
155.516
155.439
155.362
155.285
155.207
155.13
155.052
154.974
154.896
154.818
154.74
154.662
154.584
154.505
154.426
154.347
154.268
154.189
154.11
154.031
153.951
153.872
153.792
153.713
153.633
153.553
153.473
153.393
153.313
153.232
153.152
153.071
152.991
152.91
152.83
152.749
152.668
152.587
152.506
152.425
152.344
152.263
152.182
152.101
152.019
151.938
151.857
151.775
151.694
151.613
151.531
151.45
151.368
151.287
151.205
151.124
151.042
150.961
150.879
150.798
150.716
150.635
150.553
150.472
150.391
150.309
150.228
150.147
150.066
149.985
149.904
149.823
149.742
149.661
149.581
149.5
149.42
149.339
149.259
149.179
149.099
149.02
148.94
148.861
148.782
148.703
148.624
148.546
148.468
148.39
148.313
148.235
148.158
148.082
148.006
147.93
147.854
147.779
147.705
147.631
147.557
147.484
147.412
147.34
147.269
147.198
147.128
147.059
146.991
146.923
146.857
146.791
146.726
146.663
146.6
146.539
146.478
146.419
146.362
146.306
146.251
146.198
146.146
146.096
146.049
146.003
145.959
145.917
145.877
145.84
145.806
145.774
145.745
145.718
145.695
145.675
145.659
145.646
145.637
145.631
145.63
145.633
145.641
145.653
145.671
145.693
145.721
145.755
145.795
145.84
145.892
145.951
146.016
146.089
146.169
146.256
146.351
146.455
146.566
146.687
146.816
146.953
147.1
147.256
147.422
147.597
147.781
147.975
148.179
148.392
148.615
148.847
149.088
149.339
149.598
149.866
150.143
150.427
150.719
151.017
151.323
151.634
151.951
152.272
152.598
152.927
153.26
153.594
153.929
154.266
154.602
154.938
155.272
155.604
155.933
156.258
156.58
156.896
157.208
157.513
157.813
158.106
158.392
158.67
158.941
159.204
159.46
159.706
159.945
160.175
160.397
160.61
160.815
161.012
161.2
161.381
161.553
161.718
161.875
162.024
162.167
162.302
162.43
162.553
162.668
162.778
162.882
162.98
163.073
163.16
163.243
163.321
163.395
163.464
163.529
163.59
163.648
163.702
163.753
163.801
163.846
163.888
163.928
163.965
164
164.032
164.062
164.091
164.118
164.142
164.166
164.187
164.208
164.227
164.244
164.261
164.276
164.291
164.304
164.317
164.328
164.339
164.349
164.359
164.368
164.376
164.383
164.39
164.397
164.403
164.409
164.414
164.419
164.423
164.428
164.432
164.435
164.439
164.442
164.445
164.447
164.45
164.452
164.454
164.456
164.458
164.46
164.462
164.463
164.464
164.466
164.467
164.468
164.469
164.47
164.471
164.472
164.472
164.473
164.474
164.474
164.475
164.475
164.476
164.476
164.477
164.477
164.477
164.478
164.478
164.478
164.478
164.479
164.479
164.479
164.479
164.479
164.479
164.48
164.48
164.48
164.48
164.48
164.48
164.48
164.48
164.48
164.48
164.48
164.481
164.481
164.481
164.481
164.481
164.481
164.481
164.481
164.481
164.481
164.481
164.481
164.481
164.481
164.481
164.481
164.481
164.481
164.481
164.481
164.481
164.481
164.481
164.481
164.481
164.481
164.481
164.481
164.481
164.481
164.481
164.481
164.481
164.481
164.481
164.481
164.481
164.481
164.481
164.481
164.481
164.481
164.481
164.481
164.481
164.481
164.481
164.481
164.481
164.481
164.481
164.481
164.481
164.481
164.481
164.481
164.481
164.481
164.481
164.481
164.481
164.481
164.481
164.481
164.481
164.481
164.481
164.481
164.481
164.481
164.481
164.481
164.481
164.481
164.481
164.481
164.481
164.481
164.481
164.481
164.481
164.481
164.481
164.481
164.481
164.481
164.481
164.481
164.481
164.481
164.481
164.481
164.481
164.481
164.481
164.481
164.481
164.481
164.481
164.481
164.481
164.481
164.481
164.481
164.481
164.481
164.481
164.481
164.481
164.481
164.481
164.481
164.481
164.481
164.481
164.481
164.481
164.481
164.481
164.481
164.481
164.481
164.481
164.481
164.481
164.481
164.481
164.481
164.481
164.481
164.481
164.481
164.481
164.481
164.481
164.481
164.481
164.481
164.481
164.481
164.481
164.481
164.481
164.481
164.481
164.481
164.481
164.481
164.481
164.481
164.481
164.481
164.481
)
;

boundaryField
{
    topWall
    {
        type            empty;
    }
    bottomWall
    {
        type            empty;
    }
    leftAndRight_half1
    {
        type            cyclic;
    }
    leftAndRight_half0
    {
        type            cyclic;
    }
    frontAndBack
    {
        type            empty;
    }
}


// ************************************************************************* //
