/*--------------------------------*- C++ -*----------------------------------*\
  =========                 |
  \\      /  F ield         | OpenFOAM: The Open Source CFD Toolbox
   \\    /   O peration     | Website:  https://openfoam.org
    \\  /    A nd           | Version:  9
     \\/     M anipulation  |
\*---------------------------------------------------------------------------*/
FoamFile
{
    format      ascii;
    class       volScalarField;
    location    "0.4";
    object      p;
}
// * * * * * * * * * * * * * * * * * * * * * * * * * * * * * * * * * * * * * //

dimensions      [1 -1 -2 0 0 0 0];

internalField   nonuniform List<scalar> 
1000
(
100097
100097
100097
100097
100097
100097
100097
100097
100097
100097
100097
100097
100097
100097
100097
100097
100097
100097
100097
100097
100097
100097
100097
100097
100097
100097
100097
100097
100097
100097
100097
100097
100097
100097
100097
100097
100097
100097
100097
100097
100097
100097
100097
100097
100097
100097
100097
100097
100097
100097
100097
100097
100097
100097
100097
100097
100097
100097
100097
100097
100097
100097
100097
100097
100097
100097
100097
100097
100097
100097
100097
100097
100097
100097
100097
100097
100097
100097
100097
100097
100097
100097
100097
100097
100097
100097
100097
100097
100097
100097
100097
100097
100097
100097
100097
100097
100097
100097
100097
100097
100097
100097
100097
100097
100097
100097
100097
100097
100097
100097
100097
100097
100097
100097
100097
100097
100097
100097
100097
100097
100097
100097
100097
100097
100097
100097
100097
100097
100097
100097
100097
100097
100097
100097
100097
100097
100097
100097
100097
100097
100097
100097
100097
100097
100097
100097
100097
100097
100097
100097
100097
100097
100097
100097
100097
100097
100097
100097
100097
100097
100097
100097
100097
100097
100097
100097
100097
100097
100097
100097
100097
100097
100097
100097
100097
100097
100097
100097
100097
100097
100097
100097
100097
100097
100097
100097
100097
100097
100097
100097
100097
100097
100097
100097
100096
100096
100096
100096
100096
100096
100096
100096
100096
100096
100096
100096
100096
100096
100096
100096
100096
100096
100096
100096
100096
100096
100096
100096
100096
100095
100095
100095
100095
100095
100095
100095
100095
100095
100095
100095
100094
100094
100094
100094
100094
100094
100094
100093
100093
100093
100093
100093
100092
100092
100092
100092
100091
100091
100091
100091
100090
100090
100090
100089
100089
100089
100088
100088
100087
100087
100087
100086
100086
100085
100085
100084
100083
100083
100082
100082
100081
100080
100080
100079
100078
100077
100077
100076
100075
100074
100073
100072
100071
100070
100069
100068
100067
100066
100065
100064
100062
100061
100060
100058
100057
100056
100054
100053
100051
100049
100048
100046
100044
100043
100041
100039
100037
100035
100033
100031
100029
100027
100025
100023
100020
100018
100016
100013
100011
100008
100006
100003
100001
99997.9
99995.2
99992.4
99989.6
99986.7
99983.8
99980.8
99977.8
99974.8
99971.7
99968.5
99965.4
99962.1
99958.9
99955.6
99952.2
99948.9
99945.4
99942
99938.5
99935
99931.4
99927.9
99924.3
99920.6
99917
99913.3
99909.6
99905.9
99902.1
99898.4
99894.6
99890.8
99887
99883.2
99879.4
99875.5
99871.7
99867.9
99864.1
99860.3
99856.5
99852.7
99848.9
99845.1
99841.4
99837.6
99833.9
99830.3
99826.6
99823
99819.4
99815.9
99812.4
99809
99805.6
99802.2
99798.9
99795.7
99792.5
99789.4
99786.4
99783.4
99780.5
99777.7
99775
99772.3
99769.8
99767.3
99764.9
99762.7
99760.5
99758.5
99756.5
99754.7
99753
99751.4
99749.9
99748.6
99747.4
99746.4
99745.4
99744.7
99744
99743.6
99743.3
99743.1
99743.1
99743.3
99743.6
99744.2
99744.9
99745.7
99746.8
99748
99749.5
99751.1
99753
99755
99757.3
99759.7
99762.4
99765.3
99768.4
99771.7
99775.3
99779.1
99783.1
99787.4
99791.9
99796.6
99801.6
99806.9
99812.4
99818.1
99824.2
99830.4
99837
99843.8
99850.9
99858.2
99865.9
99873.8
99882
99890.5
99899.3
99908.3
99917.7
99927.3
99937.3
99947.6
99958.1
99969
99980.2
99991.7
100003
100016
100028
100041
100054
100067
100081
100095
100110
100124
100139
100155
100171
100187
100203
100220
100237
100255
100273
100291
100309
100328
100348
100367
100387
100408
100428
100449
100471
100493
100515
100538
100561
100584
100608
100632
100656
100681
100707
100732
100758
100785
100812
100839
100867
100895
100923
100952
100981
101011
101041
101071
101102
101133
101165
101197
101229
101262
101295
101329
101363
101397
101432
101467
101503
101539
101576
101613
101650
101688
101726
101765
101804
101843
101883
101923
101964
102005
102047
102089
102131
102174
102217
102261
102305
102349
102394
102440
102486
102532
102578
102625
102673
102721
102769
102818
102867
102917
102967
103017
103068
103120
103172
103224
103276
103330
103383
103437
103491
103546
103601
103657
103713
103770
103827
103884
103942
104000
104059
104118
104177
104237
104298
104358
104420
104481
104543
104606
104669
104732
104796
104860
104925
104990
105055
105121
105187
105254
105321
105389
105457
105525
105594
105663
105732
105802
105873
105943
106015
106086
106158
106230
106303
106376
106450
106524
106598
106672
106747
106823
106898
106974
107051
107127
107204
107282
107359
107437
107516
107594
107673
107752
107831
107911
107991
108071
108151
108232
108312
108393
108474
108555
108636
108717
108799
108880
108961
109042
109124
109205
109286
109366
109447
109527
109607
109686
109765
109844
109922
109999
110076
110151
110226
110300
110373
110444
110514
110583
110650
110715
110778
110839
110898
110954
111008
111058
111106
111150
111191
111227
111260
111287
111311
111329
111341
111348
111349
111344
111332
111313
111287
111253
111211
111161
111102
111035
110959
110874
110779
110676
110563
110441
110309
110169
110019
109861
109695
109520
109337
109147
108950
108747
108539
108325
108106
107884
107658
107430
107200
106969
106737
106506
106275
106046
105819
105594
105372
105154
104939
104729
104524
104323
104128
103939
103754
103576
103404
103237
103077
102922
102774
102631
102495
102364
102239
102119
102006
101897
101794
101695
101602
101513
101429
101349
101274
101202
101135
101071
101011
100954
100900
100849
100802
100757
100714
100675
100637
100602
100569
100538
100509
100482
100456
100432
100410
100389
100369
100351
100334
100317
100302
100288
100275
100263
100251
100241
100231
100221
100212
100204
100197
100190
100183
100177
100171
100166
100161
100156
100152
100148
100144
100141
100138
100135
100132
100129
100127
100125
100123
100121
100119
100117
100116
100114
100113
100112
100111
100110
100109
100108
100107
100106
100106
100105
100104
100104
100103
100103
100102
100102
100101
100101
100101
100100
100100
100100
100100
100099
100099
100099
100099
100099
100099
100098
100098
100098
100098
100098
100098
100098
100098
100098
100098
100098
100097
100097
100097
100097
100097
100097
100097
100097
100097
100097
100097
100097
100097
100097
100097
100097
100097
100097
100097
100097
100097
100097
100097
100097
100097
100097
100097
100097
100097
100097
100097
100097
100097
100097
100097
100097
100097
100097
100097
100097
100097
100097
100097
100097
100097
100097
100097
100097
100097
100097
100097
100097
100097
100097
100097
100097
100097
100097
100097
100097
100097
100097
100097
100097
100097
100097
100097
100097
100097
100097
100097
100097
100097
100097
100097
100097
100097
100097
100097
100097
100097
100097
100097
100097
100097
100097
100097
100097
100097
100097
100097
100097
100097
100097
100097
100097
100097
100097
100097
100097
100097
100097
100097
100097
100097
100097
100097
100097
100097
100097
100097
100097
100097
100097
100097
100097
100097
100097
100097
100097
100097
100097
100097
100097
100097
100097
100097
100097
100097
100097
100097
100097
100097
100097
100097
100097
100097
100097
100097
100097
100097
100097
100097
100097
100097
100097
100097
100097
)
;

boundaryField
{
    topWall
    {
        type            empty;
    }
    bottomWall
    {
        type            empty;
    }
    leftAndRight_half1
    {
        type            cyclic;
    }
    leftAndRight_half0
    {
        type            cyclic;
    }
    frontAndBack
    {
        type            empty;
    }
}


// ************************************************************************* //
