/*--------------------------------*- C++ -*----------------------------------*\
  =========                 |
  \\      /  F ield         | OpenFOAM: The Open Source CFD Toolbox
   \\    /   O peration     | Website:  https://openfoam.org
    \\  /    A nd           | Version:  9
     \\/     M anipulation  |
\*---------------------------------------------------------------------------*/
FoamFile
{
    format      ascii;
    class       volVectorField;
    location    "0.4";
    object      U;
}
// * * * * * * * * * * * * * * * * * * * * * * * * * * * * * * * * * * * * * //

dimensions      [0 1 -1 0 0 0 0];

internalField   nonuniform List<vector> 
1000
(
(0.439989 0 0)
(0.439989 0 0)
(0.439989 0 0)
(0.439989 0 0)
(0.439989 0 0)
(0.439989 0 0)
(0.439989 0 0)
(0.439989 0 0)
(0.439989 0 0)
(0.439989 0 0)
(0.439989 0 0)
(0.439989 0 0)
(0.439989 0 0)
(0.439989 0 0)
(0.439989 0 0)
(0.439989 0 0)
(0.439989 0 0)
(0.439989 0 0)
(0.439989 0 0)
(0.439989 0 0)
(0.439989 0 0)
(0.439989 0 0)
(0.439989 0 0)
(0.439989 0 0)
(0.439989 0 0)
(0.439989 0 0)
(0.439989 0 0)
(0.439989 0 0)
(0.439989 0 0)
(0.439989 0 0)
(0.439989 0 0)
(0.439989 0 0)
(0.439989 0 0)
(0.439989 0 0)
(0.439989 0 0)
(0.439989 0 0)
(0.439989 0 0)
(0.439989 0 0)
(0.439989 0 0)
(0.439989 0 0)
(0.439989 0 0)
(0.439989 0 0)
(0.439989 0 0)
(0.439989 0 0)
(0.439989 0 0)
(0.439989 0 0)
(0.439989 0 0)
(0.439989 0 0)
(0.439989 0 0)
(0.439989 0 0)
(0.439989 0 0)
(0.439989 0 0)
(0.439989 0 0)
(0.439989 0 0)
(0.439989 0 0)
(0.439989 0 0)
(0.439989 0 0)
(0.439989 0 0)
(0.439989 0 0)
(0.439989 0 0)
(0.439989 0 0)
(0.439989 0 0)
(0.439989 0 0)
(0.439989 0 0)
(0.439989 0 0)
(0.439989 0 0)
(0.439989 0 0)
(0.439989 0 0)
(0.439989 0 0)
(0.439989 0 0)
(0.439989 0 0)
(0.439989 0 0)
(0.439989 0 0)
(0.439989 0 0)
(0.439989 0 0)
(0.439989 0 0)
(0.439989 0 0)
(0.439989 0 0)
(0.439989 0 0)
(0.439989 0 0)
(0.439989 0 0)
(0.439989 0 0)
(0.439989 0 0)
(0.439989 0 0)
(0.439989 0 0)
(0.439989 0 0)
(0.439989 0 0)
(0.439989 0 0)
(0.439989 0 0)
(0.439989 0 0)
(0.439989 0 0)
(0.439989 0 0)
(0.439989 0 0)
(0.439989 0 0)
(0.439989 0 0)
(0.439989 0 0)
(0.439989 0 0)
(0.439989 0 0)
(0.439989 0 0)
(0.439989 0 0)
(0.439989 0 0)
(0.439989 0 0)
(0.439989 0 0)
(0.439989 0 0)
(0.439989 0 0)
(0.439989 0 0)
(0.439989 0 0)
(0.439989 0 0)
(0.439989 0 0)
(0.439989 0 0)
(0.439989 0 0)
(0.439989 0 0)
(0.439989 0 0)
(0.439989 0 0)
(0.439989 0 0)
(0.439989 0 0)
(0.439989 0 0)
(0.439989 0 0)
(0.439989 0 0)
(0.439989 0 0)
(0.439989 0 0)
(0.439989 0 0)
(0.439989 0 0)
(0.439989 0 0)
(0.439989 0 0)
(0.439989 0 0)
(0.439989 0 0)
(0.439989 0 0)
(0.43999 0 0)
(0.43999 0 0)
(0.43999 0 0)
(0.43999 0 0)
(0.43999 0 0)
(0.43999 0 0)
(0.43999 0 0)
(0.43999 0 0)
(0.43999 0 0)
(0.43999 0 0)
(0.43999 0 0)
(0.43999 0 0)
(0.43999 0 0)
(0.439991 0 0)
(0.439991 0 0)
(0.439991 0 0)
(0.439991 0 0)
(0.439991 0 0)
(0.439991 0 0)
(0.439991 0 0)
(0.439992 0 0)
(0.439992 0 0)
(0.439992 0 0)
(0.439992 0 0)
(0.439993 0 0)
(0.439993 0 0)
(0.439993 0 0)
(0.439994 0 0)
(0.439994 0 0)
(0.439994 0 0)
(0.439995 0 0)
(0.439995 0 0)
(0.439996 0 0)
(0.439996 0 0)
(0.439997 0 0)
(0.439997 0 0)
(0.439998 0 0)
(0.439999 0 0)
(0.439999 0 0)
(0.44 0 0)
(0.440001 0 0)
(0.440002 0 0)
(0.440003 0 0)
(0.440004 0 0)
(0.440005 0 0)
(0.440006 0 0)
(0.440007 0 0)
(0.440008 0 0)
(0.44001 0 0)
(0.440011 0 0)
(0.440013 0 0)
(0.440015 0 0)
(0.440016 0 0)
(0.440018 0 0)
(0.44002 0 0)
(0.440023 0 0)
(0.440025 0 0)
(0.440027 0 0)
(0.44003 0 0)
(0.440033 0 0)
(0.440036 0 0)
(0.440039 0 0)
(0.440043 0 0)
(0.440046 0 0)
(0.44005 0 0)
(0.440054 0 0)
(0.440059 0 0)
(0.440063 0 0)
(0.440068 0 0)
(0.440074 0 0)
(0.440079 0 0)
(0.440085 0 0)
(0.440091 0 0)
(0.440098 0 0)
(0.440105 0 0)
(0.440113 0 0)
(0.440121 0 0)
(0.440129 0 0)
(0.440138 0 0)
(0.440148 0 0)
(0.440158 0 0)
(0.440169 0 0)
(0.44018 0 0)
(0.440192 0 0)
(0.440205 0 0)
(0.440219 0 0)
(0.440233 0 0)
(0.440248 0 0)
(0.440264 0 0)
(0.440281 0 0)
(0.440299 0 0)
(0.440318 0 0)
(0.440338 0 0)
(0.440359 0 0)
(0.440381 0 0)
(0.440405 0 0)
(0.44043 0 0)
(0.440456 0 0)
(0.440484 0 0)
(0.440513 0 0)
(0.440544 0 0)
(0.440577 0 0)
(0.440611 0 0)
(0.440647 0 0)
(0.440685 0 0)
(0.440725 0 0)
(0.440768 0 0)
(0.440812 0 0)
(0.440859 0 0)
(0.440908 0 0)
(0.44096 0 0)
(0.441015 0 0)
(0.441072 0 0)
(0.441132 0 0)
(0.441196 0 0)
(0.441262 0 0)
(0.441332 0 0)
(0.441406 0 0)
(0.441483 0 0)
(0.441564 0 0)
(0.441649 0 0)
(0.441738 0 0)
(0.441832 0 0)
(0.44193 0 0)
(0.442033 0 0)
(0.442141 0 0)
(0.442254 0 0)
(0.442372 0 0)
(0.442496 0 0)
(0.442626 0 0)
(0.442762 0 0)
(0.442904 0 0)
(0.443052 0 0)
(0.443208 0 0)
(0.443371 0 0)
(0.443541 0 0)
(0.443719 0 0)
(0.443904 0 0)
(0.444099 0 0)
(0.444301 0 0)
(0.444513 0 0)
(0.444734 0 0)
(0.444964 0 0)
(0.445205 0 0)
(0.445456 0 0)
(0.445718 0 0)
(0.44599 0 0)
(0.446275 0 0)
(0.446571 0 0)
(0.44688 0 0)
(0.447201 0 0)
(0.447536 0 0)
(0.447884 0 0)
(0.448247 0 0)
(0.448624 0 0)
(0.449016 0 0)
(0.449424 0 0)
(0.449848 0 0)
(0.450289 0 0)
(0.450747 0 0)
(0.451223 0 0)
(0.451717 0 0)
(0.452231 0 0)
(0.452763 0 0)
(0.453316 0 0)
(0.453889 0 0)
(0.454484 0 0)
(0.455101 0 0)
(0.455741 0 0)
(0.456403 0 0)
(0.45709 0 0)
(0.457801 0 0)
(0.458538 0 0)
(0.459301 0 0)
(0.460091 0 0)
(0.460908 0 0)
(0.461753 0 0)
(0.462627 0 0)
(0.463532 0 0)
(0.464466 0 0)
(0.465433 0 0)
(0.466431 0 0)
(0.467462 0 0)
(0.468527 0 0)
(0.469627 0 0)
(0.470762 0 0)
(0.471934 0 0)
(0.473142 0 0)
(0.474389 0 0)
(0.475675 0 0)
(0.477 0 0)
(0.478366 0 0)
(0.479774 0 0)
(0.481224 0 0)
(0.482718 0 0)
(0.484256 0 0)
(0.485839 0 0)
(0.487469 0 0)
(0.489145 0 0)
(0.49087 0 0)
(0.492644 0 0)
(0.494467 0 0)
(0.496342 0 0)
(0.498269 0 0)
(0.500248 0 0)
(0.502281 0 0)
(0.504369 0 0)
(0.506513 0 0)
(0.508714 0 0)
(0.510972 0 0)
(0.513289 0 0)
(0.515665 0 0)
(0.518102 0 0)
(0.5206 0 0)
(0.523161 0 0)
(0.525786 0 0)
(0.528474 0 0)
(0.531228 0 0)
(0.534049 0 0)
(0.536936 0 0)
(0.539892 0 0)
(0.542916 0 0)
(0.546011 0 0)
(0.549176 0 0)
(0.552413 0 0)
(0.555723 0 0)
(0.559107 0 0)
(0.562564 0 0)
(0.566097 0 0)
(0.569706 0 0)
(0.573392 0 0)
(0.577156 0 0)
(0.580998 0 0)
(0.58492 0 0)
(0.588921 0 0)
(0.593004 0 0)
(0.597169 0 0)
(0.601415 0 0)
(0.605745 0 0)
(0.610159 0 0)
(0.614658 0 0)
(0.619241 0 0)
(0.623911 0 0)
(0.628667 0 0)
(0.63351 0 0)
(0.638442 0 0)
(0.643461 0 0)
(0.64857 0 0)
(0.653768 0 0)
(0.659056 0 0)
(0.664435 0 0)
(0.669905 0 0)
(0.675467 0 0)
(0.681121 0 0)
(0.686867 0 0)
(0.692707 0 0)
(0.698639 0 0)
(0.704666 0 0)
(0.710787 0 0)
(0.717002 0 0)
(0.723312 0 0)
(0.729718 0 0)
(0.736218 0 0)
(0.742815 0 0)
(0.749507 0 0)
(0.756296 0 0)
(0.763181 0 0)
(0.770163 0 0)
(0.777242 0 0)
(0.784417 0 0)
(0.79169 0 0)
(0.79906 0 0)
(0.806527 0 0)
(0.814092 0 0)
(0.821754 0 0)
(0.829513 0 0)
(0.83737 0 0)
(0.845325 0 0)
(0.853377 0 0)
(0.861526 0 0)
(0.869773 0 0)
(0.878118 0 0)
(0.886559 0 0)
(0.895098 0 0)
(0.903734 0 0)
(0.912467 0 0)
(0.921296 0 0)
(0.930223 0 0)
(0.939245 0 0)
(0.948364 0 0)
(0.957579 0 0)
(0.966889 0 0)
(0.976295 0 0)
(0.985796 0 0)
(0.995393 0 0)
(1.00508 0 0)
(1.01487 0 0)
(1.02475 0 0)
(1.03472 0 0)
(1.04479 0 0)
(1.05495 0 0)
(1.0652 0 0)
(1.07555 0 0)
(1.08598 0 0)
(1.09651 0 0)
(1.10713 0 0)
(1.11784 0 0)
(1.12864 0 0)
(1.13953 0 0)
(1.15051 0 0)
(1.16158 0 0)
(1.17274 0 0)
(1.18398 0 0)
(1.19531 0 0)
(1.20673 0 0)
(1.21824 0 0)
(1.22983 0 0)
(1.24151 0 0)
(1.25327 0 0)
(1.26512 0 0)
(1.27705 0 0)
(1.28907 0 0)
(1.30116 0 0)
(1.31334 0 0)
(1.32561 0 0)
(1.33795 0 0)
(1.35037 0 0)
(1.36288 0 0)
(1.37546 0 0)
(1.38812 0 0)
(1.40086 0 0)
(1.41368 0 0)
(1.42658 0 0)
(1.43955 0 0)
(1.4526 0 0)
(1.46572 0 0)
(1.47892 0 0)
(1.4922 0 0)
(1.50554 0 0)
(1.51896 0 0)
(1.53246 0 0)
(1.54602 0 0)
(1.55966 0 0)
(1.57337 0 0)
(1.58714 0 0)
(1.60099 0 0)
(1.61491 0 0)
(1.62889 0 0)
(1.64294 0 0)
(1.65706 0 0)
(1.67125 0 0)
(1.6855 0 0)
(1.69981 0 0)
(1.7142 0 0)
(1.72864 0 0)
(1.74315 0 0)
(1.75772 0 0)
(1.77236 0 0)
(1.78705 0 0)
(1.80181 0 0)
(1.81663 0 0)
(1.83151 0 0)
(1.84645 0 0)
(1.86144 0 0)
(1.8765 0 0)
(1.89161 0 0)
(1.90678 0 0)
(1.92201 0 0)
(1.93729 0 0)
(1.95263 0 0)
(1.96802 0 0)
(1.98347 0 0)
(1.99897 0 0)
(2.01452 0 0)
(2.03013 0 0)
(2.04579 0 0)
(2.0615 0 0)
(2.07726 0 0)
(2.09307 0 0)
(2.10893 0 0)
(2.12484 0 0)
(2.1408 0 0)
(2.15681 0 0)
(2.17286 0 0)
(2.18896 0 0)
(2.20511 0 0)
(2.22131 0 0)
(2.23755 0 0)
(2.25383 0 0)
(2.27016 0 0)
(2.28654 0 0)
(2.30295 0 0)
(2.31941 0 0)
(2.33591 0 0)
(2.35246 0 0)
(2.36904 0 0)
(2.38567 0 0)
(2.40233 0 0)
(2.41904 0 0)
(2.43578 0 0)
(2.45257 0 0)
(2.46939 0 0)
(2.48625 0 0)
(2.50315 0 0)
(2.52008 0 0)
(2.53705 0 0)
(2.55405 0 0)
(2.57109 0 0)
(2.58817 0 0)
(2.60528 0 0)
(2.62242 0 0)
(2.63959 0 0)
(2.6568 0 0)
(2.67404 0 0)
(2.69131 0 0)
(2.70861 0 0)
(2.72595 0 0)
(2.74331 0 0)
(2.7607 0 0)
(2.77812 0 0)
(2.79557 0 0)
(2.81305 0 0)
(2.83055 0 0)
(2.84808 0 0)
(2.86564 0 0)
(2.88322 0 0)
(2.90083 0 0)
(2.91846 0 0)
(2.93611 0 0)
(2.95379 0 0)
(2.97149 0 0)
(2.98921 0 0)
(3.00695 0 0)
(3.02472 0 0)
(3.0425 0 0)
(3.06031 0 0)
(3.07813 0 0)
(3.09597 0 0)
(3.11382 0 0)
(3.1317 0 0)
(3.14959 0 0)
(3.16749 0 0)
(3.18541 0 0)
(3.20334 0 0)
(3.22129 0 0)
(3.23925 0 0)
(3.25721 0 0)
(3.27519 0 0)
(3.29318 0 0)
(3.31117 0 0)
(3.32918 0 0)
(3.34718 0 0)
(3.3652 0 0)
(3.38322 0 0)
(3.40124 0 0)
(3.41926 0 0)
(3.43728 0 0)
(3.45531 0 0)
(3.47333 0 0)
(3.49134 0 0)
(3.50936 0 0)
(3.52736 0 0)
(3.54536 0 0)
(3.56335 0 0)
(3.58133 0 0)
(3.59929 0 0)
(3.61724 0 0)
(3.63518 0 0)
(3.65309 0 0)
(3.67099 0 0)
(3.68886 0 0)
(3.70671 0 0)
(3.72453 0 0)
(3.74232 0 0)
(3.76008 0 0)
(3.7778 0 0)
(3.79549 0 0)
(3.81313 0 0)
(3.83073 0 0)
(3.84828 0 0)
(3.86578 0 0)
(3.88323 0 0)
(3.90062 0 0)
(3.91794 0 0)
(3.9352 0 0)
(3.95238 0 0)
(3.96949 0 0)
(3.98652 0 0)
(4.00346 0 0)
(4.02031 0 0)
(4.03706 0 0)
(4.05371 0 0)
(4.07024 0 0)
(4.08666 0 0)
(4.10295 0 0)
(4.11911 0 0)
(4.13513 0 0)
(4.151 0 0)
(4.16671 0 0)
(4.18226 0 0)
(4.19762 0 0)
(4.2128 0 0)
(4.22778 0 0)
(4.24255 0 0)
(4.2571 0 0)
(4.27141 0 0)
(4.28548 0 0)
(4.29928 0 0)
(4.3128 0 0)
(4.32602 0 0)
(4.33893 0 0)
(4.35152 0 0)
(4.36376 0 0)
(4.37563 0 0)
(4.38711 0 0)
(4.39818 0 0)
(4.40883 0 0)
(4.41901 0 0)
(4.42872 0 0)
(4.43792 0 0)
(4.44658 0 0)
(4.45468 0 0)
(4.46219 0 0)
(4.46907 0 0)
(4.4753 0 0)
(4.48083 0 0)
(4.48564 0 0)
(4.48968 0 0)
(4.49292 0 0)
(4.49531 0 0)
(4.49682 0 0)
(4.49739 0 0)
(4.497 0 0)
(4.49558 0 0)
(4.4931 0 0)
(4.4895 0 0)
(4.48473 0 0)
(4.47874 0 0)
(4.47148 0 0)
(4.4629 0 0)
(4.45295 0 0)
(4.44155 0 0)
(4.42868 0 0)
(4.41426 0 0)
(4.39824 0 0)
(4.38058 0 0)
(4.36121 0 0)
(4.34008 0 0)
(4.31715 0 0)
(4.29236 0 0)
(4.26568 0 0)
(4.23706 0 0)
(4.20645 0 0)
(4.17383 0 0)
(4.13916 0 0)
(4.10243 0 0)
(4.0636 0 0)
(4.02268 0 0)
(3.97965 0 0)
(3.93452 0 0)
(3.88729 0 0)
(3.838 0 0)
(3.78665 0 0)
(3.7333 0 0)
(3.67799 0 0)
(3.62078 0 0)
(3.56173 0 0)
(3.50092 0 0)
(3.43844 0 0)
(3.37438 0 0)
(3.30886 0 0)
(3.24199 0 0)
(3.17389 0 0)
(3.10469 0 0)
(3.03453 0 0)
(2.96355 0 0)
(2.89192 0 0)
(2.81976 0 0)
(2.74726 0 0)
(2.67455 0 0)
(2.6018 0 0)
(2.52917 0 0)
(2.45681 0 0)
(2.38487 0 0)
(2.3135 0 0)
(2.24284 0 0)
(2.17303 0 0)
(2.10419 0 0)
(2.03646 0 0)
(1.96993 0 0)
(1.90472 0 0)
(1.84091 0 0)
(1.77859 0 0)
(1.71784 0 0)
(1.65872 0 0)
(1.60128 0 0)
(1.54556 0 0)
(1.49161 0 0)
(1.43945 0 0)
(1.38909 0 0)
(1.34055 0 0)
(1.29383 0 0)
(1.24892 0 0)
(1.2058 0 0)
(1.16447 0 0)
(1.12489 0 0)
(1.08704 0 0)
(1.05088 0 0)
(1.01637 0 0)
(0.983487 0 0)
(0.952171 0 0)
(0.922382 0 0)
(0.894073 0 0)
(0.867194 0 0)
(0.841697 0 0)
(0.81753 0 0)
(0.794643 0 0)
(0.772985 0 0)
(0.752507 0 0)
(0.733156 0 0)
(0.714885 0 0)
(0.697645 0 0)
(0.681388 0 0)
(0.666067 0 0)
(0.651637 0 0)
(0.638055 0 0)
(0.625277 0 0)
(0.613262 0 0)
(0.601971 0 0)
(0.591365 0 0)
(0.581408 0 0)
(0.572064 0 0)
(0.563299 0 0)
(0.555081 0 0)
(0.547379 0 0)
(0.540164 0 0)
(0.533408 0 0)
(0.527083 0 0)
(0.521164 0 0)
(0.515628 0 0)
(0.510451 0 0)
(0.505612 0 0)
(0.50109 0 0)
(0.496866 0 0)
(0.492921 0 0)
(0.489238 0 0)
(0.485801 0 0)
(0.482594 0 0)
(0.479603 0 0)
(0.476814 0 0)
(0.474214 0 0)
(0.47179 0 0)
(0.469532 0 0)
(0.467429 0 0)
(0.46547 0 0)
(0.463646 0 0)
(0.461949 0 0)
(0.460369 0 0)
(0.4589 0 0)
(0.457533 0 0)
(0.456261 0 0)
(0.455079 0 0)
(0.453981 0 0)
(0.45296 0 0)
(0.452011 0 0)
(0.45113 0 0)
(0.450312 0 0)
(0.449552 0 0)
(0.448846 0 0)
(0.448191 0 0)
(0.447584 0 0)
(0.44702 0 0)
(0.446497 0 0)
(0.446012 0 0)
(0.445562 0 0)
(0.445145 0 0)
(0.444759 0 0)
(0.4444 0 0)
(0.444069 0 0)
(0.443761 0 0)
(0.443476 0 0)
(0.443212 0 0)
(0.442968 0 0)
(0.442742 0 0)
(0.442533 0 0)
(0.442339 0 0)
(0.44216 0 0)
(0.441994 0 0)
(0.44184 0 0)
(0.441698 0 0)
(0.441567 0 0)
(0.441446 0 0)
(0.441334 0 0)
(0.44123 0 0)
(0.441134 0 0)
(0.441046 0 0)
(0.440964 0 0)
(0.440888 0 0)
(0.440818 0 0)
(0.440754 0 0)
(0.440694 0 0)
(0.440639 0 0)
(0.440588 0 0)
(0.440542 0 0)
(0.440498 0 0)
(0.440458 0 0)
(0.440422 0 0)
(0.440388 0 0)
(0.440356 0 0)
(0.440327 0 0)
(0.440301 0 0)
(0.440276 0 0)
(0.440253 0 0)
(0.440232 0 0)
(0.440213 0 0)
(0.440195 0 0)
(0.440179 0 0)
(0.440164 0 0)
(0.44015 0 0)
(0.440137 0 0)
(0.440125 0 0)
(0.440114 0 0)
(0.440104 0 0)
(0.440095 0 0)
(0.440087 0 0)
(0.440079 0 0)
(0.440072 0 0)
(0.440065 0 0)
(0.440059 0 0)
(0.440053 0 0)
(0.440048 0 0)
(0.440043 0 0)
(0.440039 0 0)
(0.440035 0 0)
(0.440031 0 0)
(0.440028 0 0)
(0.440025 0 0)
(0.440022 0 0)
(0.440019 0 0)
(0.440017 0 0)
(0.440014 0 0)
(0.440012 0 0)
(0.44001 0 0)
(0.440009 0 0)
(0.440007 0 0)
(0.440006 0 0)
(0.440004 0 0)
(0.440003 0 0)
(0.440002 0 0)
(0.440001 0 0)
(0.44 0 0)
(0.439999 0 0)
(0.439998 0 0)
(0.439997 0 0)
(0.439997 0 0)
(0.439996 0 0)
(0.439995 0 0)
(0.439995 0 0)
(0.439994 0 0)
(0.439994 0 0)
(0.439994 0 0)
(0.439993 0 0)
(0.439993 0 0)
(0.439992 0 0)
(0.439992 0 0)
(0.439992 0 0)
(0.439992 0 0)
(0.439991 0 0)
(0.439991 0 0)
(0.439991 0 0)
(0.439991 0 0)
(0.439991 0 0)
(0.439991 0 0)
(0.43999 0 0)
(0.43999 0 0)
(0.43999 0 0)
(0.43999 0 0)
(0.43999 0 0)
(0.43999 0 0)
(0.43999 0 0)
(0.43999 0 0)
(0.43999 0 0)
(0.43999 0 0)
(0.43999 0 0)
(0.439989 0 0)
(0.439989 0 0)
(0.439989 0 0)
(0.439989 0 0)
(0.439989 0 0)
(0.439989 0 0)
(0.439989 0 0)
(0.439989 0 0)
(0.439989 0 0)
(0.439989 0 0)
(0.439989 0 0)
(0.439989 0 0)
(0.439989 0 0)
(0.439989 0 0)
(0.439989 0 0)
(0.439989 0 0)
(0.439989 0 0)
(0.439989 0 0)
(0.439989 0 0)
(0.439989 0 0)
(0.439989 0 0)
(0.439989 0 0)
(0.439989 0 0)
(0.439989 0 0)
(0.439989 0 0)
(0.439989 0 0)
(0.439989 0 0)
(0.439989 0 0)
(0.439989 0 0)
(0.439989 0 0)
(0.439989 0 0)
(0.439989 0 0)
(0.439989 0 0)
(0.439989 0 0)
(0.439989 0 0)
(0.439989 0 0)
(0.439989 0 0)
(0.439989 0 0)
(0.439989 0 0)
(0.439989 0 0)
(0.439989 0 0)
(0.439989 0 0)
(0.439989 0 0)
(0.439989 0 0)
(0.439989 0 0)
(0.439989 0 0)
(0.439989 0 0)
(0.439989 0 0)
(0.439989 0 0)
(0.439989 0 0)
(0.439989 0 0)
(0.439989 0 0)
(0.439989 0 0)
(0.439989 0 0)
(0.439989 0 0)
(0.439989 0 0)
(0.439989 0 0)
(0.439989 0 0)
(0.439989 0 0)
(0.439989 0 0)
(0.439989 0 0)
(0.439989 0 0)
(0.439989 0 0)
(0.439989 0 0)
(0.439989 0 0)
(0.439989 0 0)
(0.439989 0 0)
(0.439989 0 0)
(0.439989 0 0)
(0.439989 0 0)
(0.439989 0 0)
(0.439989 0 0)
(0.439989 0 0)
(0.439989 0 0)
(0.439989 0 0)
(0.439989 0 0)
(0.439989 0 0)
(0.439989 0 0)
(0.439989 0 0)
(0.439989 0 0)
(0.439989 0 0)
(0.439989 0 0)
(0.439989 0 0)
(0.439989 0 0)
(0.439989 0 0)
(0.439989 0 0)
(0.439989 0 0)
(0.439989 0 0)
)
;

boundaryField
{
    topWall
    {
        type            empty;
    }
    bottomWall
    {
        type            empty;
    }
    leftAndRight_half1
    {
        type            cyclic;
    }
    leftAndRight_half0
    {
        type            cyclic;
    }
    frontAndBack
    {
        type            empty;
    }
}


// ************************************************************************* //
