/*--------------------------------*- C++ -*----------------------------------*\
  =========                 |
  \\      /  F ield         | OpenFOAM: The Open Source CFD Toolbox
   \\    /   O peration     | Website:  https://openfoam.org
    \\  /    A nd           | Version:  9
     \\/     M anipulation  |
\*---------------------------------------------------------------------------*/
FoamFile
{
    format      ascii;
    class       volVectorField;
    location    "1.6";
    object      U;
}
// * * * * * * * * * * * * * * * * * * * * * * * * * * * * * * * * * * * * * //

dimensions      [0 1 -1 0 0 0 0];

internalField   nonuniform List<vector> 
1000
(
(0.131749 0 0)
(0.131721 0 0)
(0.13175 0 0)
(0.131719 0 0)
(0.131752 0 0)
(0.131716 0 0)
(0.131753 0 0)
(0.131714 0 0)
(0.131754 0 0)
(0.131711 0 0)
(0.131756 0 0)
(0.131707 0 0)
(0.131757 0 0)
(0.131704 0 0)
(0.131758 0 0)
(0.1317 0 0)
(0.13176 0 0)
(0.131696 0 0)
(0.131761 0 0)
(0.131691 0 0)
(0.131762 0 0)
(0.131687 0 0)
(0.131763 0 0)
(0.131682 0 0)
(0.131764 0 0)
(0.131676 0 0)
(0.131765 0 0)
(0.13167 0 0)
(0.131765 0 0)
(0.131665 0 0)
(0.131766 0 0)
(0.131658 0 0)
(0.131766 0 0)
(0.131652 0 0)
(0.131765 0 0)
(0.131645 0 0)
(0.131765 0 0)
(0.131638 0 0)
(0.131764 0 0)
(0.131631 0 0)
(0.131762 0 0)
(0.131623 0 0)
(0.13176 0 0)
(0.131616 0 0)
(0.131758 0 0)
(0.131608 0 0)
(0.131755 0 0)
(0.131601 0 0)
(0.131752 0 0)
(0.131594 0 0)
(0.131749 0 0)
(0.131586 0 0)
(0.131745 0 0)
(0.131579 0 0)
(0.13174 0 0)
(0.131573 0 0)
(0.131736 0 0)
(0.131567 0 0)
(0.131731 0 0)
(0.131561 0 0)
(0.131727 0 0)
(0.131556 0 0)
(0.131722 0 0)
(0.131552 0 0)
(0.131718 0 0)
(0.131549 0 0)
(0.131713 0 0)
(0.131548 0 0)
(0.13171 0 0)
(0.131547 0 0)
(0.131707 0 0)
(0.131548 0 0)
(0.131705 0 0)
(0.131551 0 0)
(0.131704 0 0)
(0.131556 0 0)
(0.131705 0 0)
(0.131562 0 0)
(0.131707 0 0)
(0.131571 0 0)
(0.131711 0 0)
(0.131583 0 0)
(0.131718 0 0)
(0.131596 0 0)
(0.131728 0 0)
(0.131609 0 0)
(0.131746 0 0)
(0.13162 0 0)
(0.131776 0 0)
(0.131621 0 0)
(0.131827 0 0)
(0.131607 0 0)
(0.131904 0 0)
(0.131589 0 0)
(0.131991 0 0)
(0.131605 0 0)
(0.132057 0 0)
(0.131706 0 0)
(0.132091 0 0)
(0.131883 0 0)
(0.132151 0 0)
(0.132065 0 0)
(0.132262 0 0)
(0.132221 0 0)
(0.132388 0 0)
(0.132353 0 0)
(0.132499 0 0)
(0.132461 0 0)
(0.132586 0 0)
(0.132547 0 0)
(0.132655 0 0)
(0.132617 0 0)
(0.13271 0 0)
(0.132677 0 0)
(0.13276 0 0)
(0.132734 0 0)
(0.132808 0 0)
(0.13279 0 0)
(0.132858 0 0)
(0.132848 0 0)
(0.132911 0 0)
(0.132908 0 0)
(0.132966 0 0)
(0.13297 0 0)
(0.133024 0 0)
(0.133034 0 0)
(0.133084 0 0)
(0.1331 0 0)
(0.133147 0 0)
(0.133168 0 0)
(0.133212 0 0)
(0.133238 0 0)
(0.133278 0 0)
(0.133308 0 0)
(0.133346 0 0)
(0.133379 0 0)
(0.133415 0 0)
(0.133451 0 0)
(0.133485 0 0)
(0.133523 0 0)
(0.133555 0 0)
(0.133595 0 0)
(0.133625 0 0)
(0.133667 0 0)
(0.133696 0 0)
(0.133738 0 0)
(0.133765 0 0)
(0.133808 0 0)
(0.133834 0 0)
(0.133877 0 0)
(0.133902 0 0)
(0.133945 0 0)
(0.133968 0 0)
(0.134011 0 0)
(0.134033 0 0)
(0.134075 0 0)
(0.134096 0 0)
(0.134137 0 0)
(0.134157 0 0)
(0.134196 0 0)
(0.134215 0 0)
(0.134253 0 0)
(0.134271 0 0)
(0.134308 0 0)
(0.134324 0 0)
(0.134359 0 0)
(0.134375 0 0)
(0.134408 0 0)
(0.134422 0 0)
(0.134453 0 0)
(0.134466 0 0)
(0.134495 0 0)
(0.134507 0 0)
(0.134534 0 0)
(0.134544 0 0)
(0.134569 0 0)
(0.134578 0 0)
(0.1346 0 0)
(0.134608 0 0)
(0.134627 0 0)
(0.134633 0 0)
(0.134651 0 0)
(0.134655 0 0)
(0.134671 0 0)
(0.134673 0 0)
(0.134687 0 0)
(0.134686 0 0)
(0.134699 0 0)
(0.134694 0 0)
(0.134706 0 0)
(0.134697 0 0)
(0.13471 0 0)
(0.134697 0 0)
(0.134707 0 0)
(0.134693 0 0)
(0.134699 0 0)
(0.134687 0 0)
(0.134689 0 0)
(0.134679 0 0)
(0.134681 0 0)
(0.134673 0 0)
(0.134675 0 0)
(0.134664 0 0)
(0.134649 0 0)
(0.134604 0 0)
(0.134539 0 0)
(0.134443 0 0)
(0.13434 0 0)
(0.134231 0 0)
(0.134139 0 0)
(0.134058 0 0)
(0.134 0 0)
(0.133951 0 0)
(0.133917 0 0)
(0.133886 0 0)
(0.133863 0 0)
(0.133839 0 0)
(0.133819 0 0)
(0.133796 0 0)
(0.133776 0 0)
(0.133752 0 0)
(0.133731 0 0)
(0.133706 0 0)
(0.133682 0 0)
(0.133656 0 0)
(0.133631 0 0)
(0.133604 0 0)
(0.133577 0 0)
(0.133548 0 0)
(0.13352 0 0)
(0.13349 0 0)
(0.133461 0 0)
(0.13343 0 0)
(0.133399 0 0)
(0.133368 0 0)
(0.133336 0 0)
(0.133304 0 0)
(0.133272 0 0)
(0.133239 0 0)
(0.133206 0 0)
(0.133173 0 0)
(0.13314 0 0)
(0.133106 0 0)
(0.133072 0 0)
(0.133039 0 0)
(0.133005 0 0)
(0.132972 0 0)
(0.132938 0 0)
(0.132905 0 0)
(0.132872 0 0)
(0.132839 0 0)
(0.132806 0 0)
(0.132773 0 0)
(0.132741 0 0)
(0.132709 0 0)
(0.132677 0 0)
(0.132646 0 0)
(0.132615 0 0)
(0.132585 0 0)
(0.132555 0 0)
(0.132526 0 0)
(0.132497 0 0)
(0.132468 0 0)
(0.132441 0 0)
(0.132413 0 0)
(0.132387 0 0)
(0.132361 0 0)
(0.132335 0 0)
(0.13231 0 0)
(0.132286 0 0)
(0.132262 0 0)
(0.132239 0 0)
(0.132217 0 0)
(0.132195 0 0)
(0.132174 0 0)
(0.132154 0 0)
(0.132134 0 0)
(0.132115 0 0)
(0.132096 0 0)
(0.132078 0 0)
(0.132061 0 0)
(0.132045 0 0)
(0.132029 0 0)
(0.132013 0 0)
(0.131999 0 0)
(0.131985 0 0)
(0.131971 0 0)
(0.131958 0 0)
(0.131946 0 0)
(0.131934 0 0)
(0.131922 0 0)
(0.131912 0 0)
(0.131901 0 0)
(0.131891 0 0)
(0.131882 0 0)
(0.131873 0 0)
(0.131865 0 0)
(0.131857 0 0)
(0.131849 0 0)
(0.131842 0 0)
(0.131835 0 0)
(0.131829 0 0)
(0.131822 0 0)
(0.131817 0 0)
(0.131811 0 0)
(0.131806 0 0)
(0.131801 0 0)
(0.131797 0 0)
(0.131793 0 0)
(0.131789 0 0)
(0.131785 0 0)
(0.131781 0 0)
(0.131778 0 0)
(0.131775 0 0)
(0.131772 0 0)
(0.13177 0 0)
(0.131767 0 0)
(0.131765 0 0)
(0.131763 0 0)
(0.131761 0 0)
(0.131759 0 0)
(0.131757 0 0)
(0.131756 0 0)
(0.131754 0 0)
(0.131753 0 0)
(0.131751 0 0)
(0.13175 0 0)
(0.131749 0 0)
(0.131748 0 0)
(0.131747 0 0)
(0.131746 0 0)
(0.131746 0 0)
(0.131745 0 0)
(0.131744 0 0)
(0.131744 0 0)
(0.131743 0 0)
(0.131743 0 0)
(0.131742 0 0)
(0.131742 0 0)
(0.131742 0 0)
(0.131741 0 0)
(0.131741 0 0)
(0.131741 0 0)
(0.13174 0 0)
(0.13174 0 0)
(0.13174 0 0)
(0.13174 0 0)
(0.131739 0 0)
(0.131739 0 0)
(0.131739 0 0)
(0.131739 0 0)
(0.131739 0 0)
(0.131739 0 0)
(0.131739 0 0)
(0.131739 0 0)
(0.131739 0 0)
(0.131739 0 0)
(0.131738 0 0)
(0.131738 0 0)
(0.131738 0 0)
(0.131738 0 0)
(0.131738 0 0)
(0.131738 0 0)
(0.131738 0 0)
(0.131738 0 0)
(0.131738 0 0)
(0.131738 0 0)
(0.131738 0 0)
(0.131738 0 0)
(0.131738 0 0)
(0.131738 0 0)
(0.131738 0 0)
(0.131738 0 0)
(0.131738 0 0)
(0.131738 0 0)
(0.131738 0 0)
(0.131738 0 0)
(0.131738 0 0)
(0.131738 0 0)
(0.131738 0 0)
(0.131738 0 0)
(0.131738 0 0)
(0.131738 0 0)
(0.131738 0 0)
(0.131738 0 0)
(0.131738 0 0)
(0.131738 0 0)
(0.131738 0 0)
(0.131738 0 0)
(0.131738 0 0)
(0.131738 0 0)
(0.131738 0 0)
(0.131738 0 0)
(0.131738 0 0)
(0.131738 0 0)
(0.131738 0 0)
(0.131738 0 0)
(0.131738 0 0)
(0.131738 0 0)
(0.131738 0 0)
(0.131738 0 0)
(0.131738 0 0)
(0.131738 0 0)
(0.131738 0 0)
(0.131738 0 0)
(0.131738 0 0)
(0.131738 0 0)
(0.131738 0 0)
(0.131738 0 0)
(0.131738 0 0)
(0.131738 0 0)
(0.131738 0 0)
(0.131738 0 0)
(0.131738 0 0)
(0.131738 0 0)
(0.131738 0 0)
(0.131738 0 0)
(0.131738 0 0)
(0.131738 0 0)
(0.131738 0 0)
(0.131738 0 0)
(0.131738 0 0)
(0.131738 0 0)
(0.131738 0 0)
(0.131738 0 0)
(0.131738 0 0)
(0.131738 0 0)
(0.131738 0 0)
(0.131738 0 0)
(0.131738 0 0)
(0.131738 0 0)
(0.131738 0 0)
(0.131738 0 0)
(0.131738 0 0)
(0.131738 0 0)
(0.131738 0 0)
(0.131738 0 0)
(0.131738 0 0)
(0.131738 0 0)
(0.131738 0 0)
(0.131738 0 0)
(0.131738 0 0)
(0.131738 0 0)
(0.131738 0 0)
(0.131738 0 0)
(0.131738 0 0)
(0.131738 0 0)
(0.131738 0 0)
(0.131738 0 0)
(0.131738 0 0)
(0.131738 0 0)
(0.131738 0 0)
(0.131738 0 0)
(0.131738 0 0)
(0.131738 0 0)
(0.131738 0 0)
(0.131738 0 0)
(0.131738 0 0)
(0.131738 0 0)
(0.131738 0 0)
(0.131738 0 0)
(0.131738 0 0)
(0.131738 0 0)
(0.131738 0 0)
(0.131738 0 0)
(0.131738 0 0)
(0.131738 0 0)
(0.131738 0 0)
(0.131738 0 0)
(0.131738 0 0)
(0.131738 0 0)
(0.131738 0 0)
(0.131738 0 0)
(0.131738 0 0)
(0.131738 0 0)
(0.131738 0 0)
(0.131738 0 0)
(0.131738 0 0)
(0.131738 0 0)
(0.131738 0 0)
(0.131738 0 0)
(0.131738 0 0)
(0.131738 0 0)
(0.131738 0 0)
(0.131738 0 0)
(0.131738 0 0)
(0.131738 0 0)
(0.131738 0 0)
(0.131738 0 0)
(0.131738 0 0)
(0.131738 0 0)
(0.131738 0 0)
(0.131738 0 0)
(0.131738 0 0)
(0.131738 0 0)
(0.131738 0 0)
(0.131738 0 0)
(0.131738 0 0)
(0.131738 0 0)
(0.131738 0 0)
(0.131738 0 0)
(0.131738 0 0)
(0.131738 0 0)
(0.131738 0 0)
(0.131738 0 0)
(0.131738 0 0)
(0.131738 0 0)
(0.131738 0 0)
(0.131738 0 0)
(0.131738 0 0)
(0.131738 0 0)
(0.131738 0 0)
(0.131738 0 0)
(0.131738 0 0)
(0.131738 0 0)
(0.131738 0 0)
(0.131738 0 0)
(0.131738 0 0)
(0.131738 0 0)
(0.131738 0 0)
(0.131738 0 0)
(0.131738 0 0)
(0.131738 0 0)
(0.131738 0 0)
(0.131738 0 0)
(0.131738 0 0)
(0.131738 0 0)
(0.131738 0 0)
(0.131738 0 0)
(0.131738 0 0)
(0.131738 0 0)
(0.131738 0 0)
(0.131738 0 0)
(0.131738 0 0)
(0.131738 0 0)
(0.131738 0 0)
(0.131738 0 0)
(0.131738 0 0)
(0.131738 0 0)
(0.131738 0 0)
(0.131738 0 0)
(0.131738 0 0)
(0.131738 0 0)
(0.131738 0 0)
(0.131738 0 0)
(0.131738 0 0)
(0.131738 0 0)
(0.131738 0 0)
(0.131738 0 0)
(0.131738 0 0)
(0.131738 0 0)
(0.131738 0 0)
(0.131738 0 0)
(0.131738 0 0)
(0.131738 0 0)
(0.131738 0 0)
(0.131738 0 0)
(0.131738 0 0)
(0.131738 0 0)
(0.131738 0 0)
(0.131738 0 0)
(0.131738 0 0)
(0.131738 0 0)
(0.131738 0 0)
(0.131738 0 0)
(0.131738 0 0)
(0.131738 0 0)
(0.131738 0 0)
(0.131738 0 0)
(0.131738 0 0)
(0.131738 0 0)
(0.131738 0 0)
(0.131738 0 0)
(0.131738 0 0)
(0.131738 0 0)
(0.131738 0 0)
(0.131738 0 0)
(0.131738 0 0)
(0.131738 0 0)
(0.131738 0 0)
(0.131738 0 0)
(0.131738 0 0)
(0.131738 0 0)
(0.131738 0 0)
(0.131738 0 0)
(0.131738 0 0)
(0.131738 0 0)
(0.131738 0 0)
(0.131738 0 0)
(0.131738 0 0)
(0.131738 0 0)
(0.131738 0 0)
(0.131738 0 0)
(0.131738 0 0)
(0.131738 0 0)
(0.131738 0 0)
(0.131738 0 0)
(0.131738 0 0)
(0.131738 0 0)
(0.131738 0 0)
(0.131738 0 0)
(0.131738 0 0)
(0.131738 0 0)
(0.131738 0 0)
(0.131738 0 0)
(0.131738 0 0)
(0.131738 0 0)
(0.131738 0 0)
(0.131738 0 0)
(0.131738 0 0)
(0.131738 0 0)
(0.131738 0 0)
(0.131738 0 0)
(0.131738 0 0)
(0.131738 0 0)
(0.131738 0 0)
(0.131738 0 0)
(0.131738 0 0)
(0.131738 0 0)
(0.131738 0 0)
(0.131738 0 0)
(0.131738 0 0)
(0.131738 0 0)
(0.131738 0 0)
(0.131738 0 0)
(0.131738 0 0)
(0.131738 0 0)
(0.131738 0 0)
(0.131738 0 0)
(0.131738 0 0)
(0.131738 0 0)
(0.131738 0 0)
(0.131738 0 0)
(0.131738 0 0)
(0.131738 0 0)
(0.131738 0 0)
(0.131738 0 0)
(0.131738 0 0)
(0.131738 0 0)
(0.131738 0 0)
(0.131738 0 0)
(0.131738 0 0)
(0.131738 0 0)
(0.131738 0 0)
(0.131738 0 0)
(0.131738 0 0)
(0.131738 0 0)
(0.131738 0 0)
(0.131738 0 0)
(0.131738 0 0)
(0.131738 0 0)
(0.131738 0 0)
(0.131738 0 0)
(0.131738 0 0)
(0.131738 0 0)
(0.131738 0 0)
(0.131738 0 0)
(0.131738 0 0)
(0.131738 0 0)
(0.131738 0 0)
(0.131738 0 0)
(0.131738 0 0)
(0.131738 0 0)
(0.131738 0 0)
(0.131738 0 0)
(0.131738 0 0)
(0.131738 0 0)
(0.131738 0 0)
(0.131738 0 0)
(0.131738 0 0)
(0.131738 0 0)
(0.131738 0 0)
(0.131738 0 0)
(0.131738 0 0)
(0.131738 0 0)
(0.131738 0 0)
(0.131738 0 0)
(0.131738 0 0)
(0.131738 0 0)
(0.131738 0 0)
(0.131738 0 0)
(0.131738 0 0)
(0.131738 0 0)
(0.131738 0 0)
(0.131738 0 0)
(0.131738 0 0)
(0.131738 0 0)
(0.131738 0 0)
(0.131738 0 0)
(0.131738 0 0)
(0.131738 0 0)
(0.131738 0 0)
(0.131738 0 0)
(0.131738 0 0)
(0.131738 0 0)
(0.131738 0 0)
(0.131738 0 0)
(0.131738 0 0)
(0.131738 0 0)
(0.131738 0 0)
(0.131738 0 0)
(0.131738 0 0)
(0.131738 0 0)
(0.131738 0 0)
(0.131738 0 0)
(0.131738 0 0)
(0.131738 0 0)
(0.131738 0 0)
(0.131738 0 0)
(0.131738 0 0)
(0.131738 0 0)
(0.131738 0 0)
(0.131738 0 0)
(0.131738 0 0)
(0.131738 0 0)
(0.131738 0 0)
(0.131738 0 0)
(0.131738 0 0)
(0.131738 0 0)
(0.131738 0 0)
(0.131738 0 0)
(0.131738 0 0)
(0.131738 0 0)
(0.131738 0 0)
(0.131738 0 0)
(0.131738 0 0)
(0.131738 0 0)
(0.131738 0 0)
(0.131738 0 0)
(0.131738 0 0)
(0.131738 0 0)
(0.131738 0 0)
(0.131738 0 0)
(0.131738 0 0)
(0.131738 0 0)
(0.131738 0 0)
(0.131738 0 0)
(0.131738 0 0)
(0.131738 0 0)
(0.131738 0 0)
(0.131738 0 0)
(0.131738 0 0)
(0.131738 0 0)
(0.131738 0 0)
(0.131738 0 0)
(0.131738 0 0)
(0.131738 0 0)
(0.131738 0 0)
(0.131738 0 0)
(0.131738 0 0)
(0.131738 0 0)
(0.131738 0 0)
(0.131738 0 0)
(0.131738 0 0)
(0.131738 0 0)
(0.131738 0 0)
(0.131738 0 0)
(0.131738 0 0)
(0.131738 0 0)
(0.131738 0 0)
(0.131738 0 0)
(0.131738 0 0)
(0.131738 0 0)
(0.131738 0 0)
(0.131738 0 0)
(0.131738 0 0)
(0.131738 0 0)
(0.131738 0 0)
(0.131738 0 0)
(0.131738 0 0)
(0.131738 0 0)
(0.131738 0 0)
(0.131738 0 0)
(0.131738 0 0)
(0.131738 0 0)
(0.131738 0 0)
(0.131738 0 0)
(0.131738 0 0)
(0.131738 0 0)
(0.131738 0 0)
(0.131738 0 0)
(0.131738 0 0)
(0.131738 0 0)
(0.131738 0 0)
(0.131738 0 0)
(0.131738 0 0)
(0.131738 0 0)
(0.131738 0 0)
(0.131738 0 0)
(0.131738 0 0)
(0.131738 0 0)
(0.131738 0 0)
(0.131738 0 0)
(0.131738 0 0)
(0.131738 0 0)
(0.131738 0 0)
(0.131738 0 0)
(0.131738 0 0)
(0.131738 0 0)
(0.131738 0 0)
(0.131738 0 0)
(0.131738 0 0)
(0.131738 0 0)
(0.131738 0 0)
(0.131738 0 0)
(0.131738 0 0)
(0.131738 0 0)
(0.131738 0 0)
(0.131738 0 0)
(0.131738 0 0)
(0.131738 0 0)
(0.131738 0 0)
(0.131738 0 0)
(0.131738 0 0)
(0.131738 0 0)
(0.131738 0 0)
(0.131738 0 0)
(0.131738 0 0)
(0.131738 0 0)
(0.131738 0 0)
(0.131738 0 0)
(0.131738 0 0)
(0.131738 0 0)
(0.131738 0 0)
(0.131738 0 0)
(0.131738 0 0)
(0.131738 0 0)
(0.131738 0 0)
(0.131738 0 0)
(0.131738 0 0)
(0.131738 0 0)
(0.131738 0 0)
(0.131738 0 0)
(0.131738 0 0)
(0.131738 0 0)
(0.131738 0 0)
(0.131738 0 0)
(0.131738 0 0)
(0.131738 0 0)
(0.131738 0 0)
(0.131738 0 0)
(0.131738 0 0)
(0.131738 0 0)
(0.131738 0 0)
(0.131738 0 0)
(0.131738 0 0)
(0.131738 0 0)
(0.131738 0 0)
(0.131738 0 0)
(0.131738 0 0)
(0.131738 0 0)
(0.131738 0 0)
(0.131738 0 0)
(0.131738 0 0)
(0.131738 0 0)
(0.131738 0 0)
(0.131738 0 0)
(0.131738 0 0)
(0.131738 0 0)
(0.131738 0 0)
(0.131738 0 0)
(0.131738 0 0)
(0.131738 0 0)
(0.131738 0 0)
(0.131738 0 0)
(0.131738 0 0)
(0.131738 0 0)
(0.131738 0 0)
(0.131738 0 0)
(0.131738 0 0)
(0.131738 0 0)
(0.131738 0 0)
(0.131738 0 0)
(0.131738 0 0)
(0.131738 0 0)
(0.131738 0 0)
(0.131738 0 0)
(0.131738 0 0)
(0.131738 0 0)
(0.131738 0 0)
(0.131738 0 0)
(0.131738 0 0)
(0.131738 0 0)
(0.131738 0 0)
(0.131738 0 0)
(0.131738 0 0)
(0.131738 0 0)
(0.131738 0 0)
(0.131738 0 0)
(0.131738 0 0)
(0.131738 0 0)
(0.131738 0 0)
(0.131738 0 0)
(0.131738 0 0)
(0.131738 0 0)
(0.131738 0 0)
(0.131738 0 0)
(0.131738 0 0)
(0.131738 0 0)
(0.131738 0 0)
(0.131738 0 0)
(0.131738 0 0)
(0.131738 0 0)
(0.131738 0 0)
(0.131738 0 0)
(0.131738 0 0)
(0.131738 0 0)
(0.131738 0 0)
(0.131738 0 0)
(0.131738 0 0)
(0.131738 0 0)
(0.131738 0 0)
(0.131738 0 0)
(0.131738 0 0)
(0.131738 0 0)
(0.131738 0 0)
(0.131738 0 0)
(0.131738 0 0)
(0.131738 0 0)
(0.131738 0 0)
(0.131738 0 0)
(0.131738 0 0)
(0.131738 0 0)
(0.131738 0 0)
(0.131738 0 0)
(0.131738 0 0)
(0.131738 0 0)
(0.131738 0 0)
(0.131738 0 0)
(0.131738 0 0)
(0.131738 0 0)
(0.131738 0 0)
(0.131738 0 0)
(0.131738 0 0)
(0.131738 0 0)
(0.131738 0 0)
(0.131738 0 0)
(0.131738 0 0)
(0.131738 0 0)
(0.131738 0 0)
(0.131738 0 0)
(0.131738 0 0)
(0.131738 0 0)
(0.131738 0 0)
(0.131738 0 0)
(0.131738 0 0)
(0.131738 0 0)
(0.131738 0 0)
(0.131738 0 0)
(0.131738 0 0)
(0.131738 0 0)
(0.131738 0 0)
(0.131738 0 0)
(0.131738 0 0)
(0.131738 0 0)
(0.131738 0 0)
(0.131738 0 0)
(0.131738 0 0)
(0.131738 0 0)
(0.131737 0 0)
(0.131739 0 0)
(0.131737 0 0)
(0.131739 0 0)
(0.131737 0 0)
(0.131739 0 0)
(0.131737 0 0)
(0.131739 0 0)
(0.131737 0 0)
(0.131739 0 0)
(0.131737 0 0)
(0.131739 0 0)
(0.131736 0 0)
(0.13174 0 0)
(0.131736 0 0)
(0.13174 0 0)
(0.131735 0 0)
(0.13174 0 0)
(0.131735 0 0)
(0.131741 0 0)
(0.131735 0 0)
(0.131741 0 0)
(0.131734 0 0)
(0.131742 0 0)
(0.131733 0 0)
(0.131742 0 0)
(0.131732 0 0)
(0.131743 0 0)
(0.131731 0 0)
(0.131744 0 0)
(0.13173 0 0)
(0.131744 0 0)
(0.131729 0 0)
(0.131745 0 0)
(0.131728 0 0)
(0.131746 0 0)
(0.131726 0 0)
(0.131747 0 0)
(0.131725 0 0)
(0.131748 0 0)
(0.131723 0 0)
)
;

boundaryField
{
    topWall
    {
        type            empty;
    }
    bottomWall
    {
        type            empty;
    }
    leftAndRight_half1
    {
        type            cyclic;
    }
    leftAndRight_half0
    {
        type            cyclic;
    }
    frontAndBack
    {
        type            empty;
    }
}


// ************************************************************************* //
