/*--------------------------------*- C++ -*----------------------------------*\
  =========                 |
  \\      /  F ield         | OpenFOAM: The Open Source CFD Toolbox
   \\    /   O peration     | Website:  https://openfoam.org
    \\  /    A nd           | Version:  9
     \\/     M anipulation  |
\*---------------------------------------------------------------------------*/
FoamFile
{
    format      ascii;
    class       volScalarField;
    location    "1";
    object      f_0;
}
// * * * * * * * * * * * * * * * * * * * * * * * * * * * * * * * * * * * * * //

dimensions      [1 -3 0 0 0 0 0];

internalField   nonuniform List<scalar> 
1000
(
666.669
666.669
666.669
666.668
666.668
666.668
666.668
666.668
666.668
666.668
666.668
666.668
666.668
666.668
666.668
666.668
666.668
666.668
666.667
666.667
666.667
666.667
666.667
666.667
666.667
666.667
666.667
666.667
666.667
666.667
666.667
666.667
666.667
666.667
666.667
666.667
666.667
666.667
666.667
666.667
666.667
666.667
666.667
666.667
666.667
666.667
666.667
666.667
666.667
666.667
666.667
666.667
666.667
666.667
666.667
666.667
666.667
666.667
666.667
666.667
666.667
666.667
666.667
666.667
666.667
666.667
666.667
666.667
666.667
666.667
666.667
666.667
666.667
666.667
666.667
666.667
666.667
666.667
666.667
666.667
666.667
666.667
666.667
666.667
666.667
666.667
666.667
666.667
666.667
666.667
666.667
666.667
666.667
666.667
666.667
666.667
666.667
666.667
666.667
666.667
666.667
666.667
666.667
666.667
666.667
666.667
666.667
666.667
666.667
666.667
666.667
666.667
666.667
666.667
666.667
666.667
666.667
666.667
666.667
666.667
666.667
666.667
666.667
666.667
666.667
666.667
666.667
666.667
666.667
666.667
666.667
666.667
666.667
666.667
666.667
666.667
666.667
666.667
666.666
666.666
666.666
666.666
666.666
666.666
666.666
666.666
666.666
666.666
666.666
666.666
666.666
666.666
666.666
666.666
666.666
666.666
666.666
666.666
666.666
666.666
666.666
666.666
666.666
666.666
666.666
666.666
666.666
666.666
666.666
666.666
666.666
666.666
666.666
666.666
666.666
666.666
666.666
666.666
666.666
666.666
666.666
666.666
666.666
666.666
666.666
666.666
666.666
666.666
666.666
666.666
666.666
666.666
666.666
666.666
666.666
666.666
666.666
666.666
666.666
666.666
666.666
666.665
666.665
666.665
666.665
666.665
666.665
666.665
666.665
666.665
666.665
666.665
666.665
666.665
666.665
666.665
666.665
666.665
666.665
666.665
666.665
666.665
666.665
666.665
666.664
666.664
666.664
666.664
666.664
666.664
666.664
666.664
666.664
666.664
666.664
666.664
666.664
666.664
666.664
666.664
666.663
666.663
666.663
666.663
666.663
666.663
666.663
666.663
666.663
666.663
666.663
666.663
666.662
666.662
666.662
666.662
666.662
666.662
666.662
666.662
666.662
666.662
666.662
666.661
666.661
666.661
666.661
666.661
666.661
666.661
666.661
666.66
666.66
666.66
666.66
666.66
666.66
666.66
666.66
666.659
666.659
666.659
666.659
666.659
666.659
666.659
666.658
666.658
666.658
666.658
666.658
666.658
666.658
666.657
666.657
666.657
666.657
666.657
666.657
666.656
666.656
666.656
666.656
666.656
666.656
666.655
666.655
666.655
666.655
666.655
666.654
666.654
666.654
666.654
666.654
666.653
666.653
666.653
666.653
666.653
666.652
666.652
666.652
666.652
666.652
666.651
666.651
666.651
666.651
666.65
666.65
666.65
666.65
666.65
666.649
666.649
666.649
666.649
666.648
666.648
666.648
666.648
666.647
666.647
666.647
666.647
666.646
666.646
666.646
666.646
666.645
666.645
666.645
666.645
666.644
666.644
666.644
666.644
666.643
666.643
666.643
666.643
666.642
666.642
666.642
666.642
666.641
666.641
666.641
666.641
666.64
666.64
666.64
666.639
666.639
666.639
666.639
666.638
666.638
666.638
666.638
666.637
666.637
666.637
666.636
666.636
666.636
666.636
666.635
666.635
666.635
666.635
666.634
666.634
666.634
666.633
666.633
666.633
666.633
666.632
666.632
666.632
666.632
666.631
666.631
666.631
666.63
666.63
666.63
666.63
666.629
666.629
666.629
666.629
666.628
666.628
666.628
666.627
666.627
666.627
666.627
666.626
666.626
666.626
666.626
666.625
666.625
666.625
666.624
666.624
666.624
666.624
666.623
666.623
666.623
666.623
666.622
666.622
666.622
666.622
666.621
666.621
666.621
666.621
666.62
666.62
666.62
666.62
666.619
666.619
666.619
666.619
666.618
666.618
666.618
666.618
666.617
666.617
666.617
666.617
666.616
666.616
666.616
666.616
666.615
666.615
666.615
666.615
666.614
666.614
666.614
666.614
666.614
666.613
666.613
666.613
666.613
666.612
666.612
666.612
666.612
666.611
666.611
666.611
666.611
666.611
666.61
666.61
666.61
666.61
666.61
666.609
666.609
666.609
666.609
666.609
666.608
666.608
666.608
666.608
666.608
666.607
666.607
666.607
666.607
666.607
666.606
666.606
666.606
666.606
666.606
666.605
666.605
666.605
666.605
666.605
666.605
666.604
666.604
666.604
666.604
666.604
666.603
666.603
666.603
666.603
666.603
666.603
666.602
666.602
666.602
666.602
666.602
666.602
666.601
666.601
666.601
666.601
666.601
666.601
666.601
666.6
666.6
666.6
666.6
666.6
666.6
666.599
666.599
666.599
666.599
666.599
666.599
666.599
666.598
666.598
666.598
666.598
666.598
666.598
666.598
666.598
666.597
666.597
666.597
666.597
666.597
666.597
666.597
666.596
666.596
666.596
666.596
666.596
666.596
666.596
666.596
666.596
666.595
666.595
666.595
666.595
666.595
666.595
666.595
666.595
666.594
666.594
666.594
666.594
666.594
666.594
666.594
666.594
666.594
666.594
666.593
666.593
666.593
666.593
666.593
666.593
666.593
666.593
666.593
666.593
666.592
666.592
666.592
666.592
666.592
666.592
666.592
666.592
666.592
666.592
666.592
666.592
666.591
666.591
666.591
666.591
666.591
666.591
666.591
666.591
666.591
666.591
666.591
666.591
666.591
666.591
666.59
666.59
666.59
666.59
666.59
666.59
666.59
666.59
666.59
666.59
666.59
666.59
666.59
666.59
666.59
666.59
666.59
666.589
666.589
666.589
666.589
666.589
666.589
666.589
666.589
666.589
666.589
666.589
666.589
666.589
666.589
666.589
666.589
666.589
666.589
666.589
666.589
666.589
666.589
666.589
666.589
666.589
666.589
666.589
666.589
666.589
666.589
666.589
666.589
666.589
666.589
666.589
666.589
666.589
666.589
666.589
666.589
666.589
666.589
666.589
666.589
666.589
666.589
666.589
666.59
666.59
666.59
666.59
666.59
666.59
666.59
666.59
666.59
666.59
666.59
666.591
666.591
666.591
666.591
666.591
666.591
666.592
666.592
666.592
666.592
666.592
666.592
666.593
666.593
666.593
666.593
666.594
666.594
666.594
666.595
666.595
666.595
666.595
666.596
666.596
666.597
666.597
666.597
666.598
666.598
666.599
666.599
666.6
666.6
666.601
666.601
666.602
666.602
666.603
666.604
666.604
666.605
666.606
666.607
666.607
666.608
666.609
666.61
666.611
666.612
666.613
666.614
666.615
666.616
666.617
666.618
666.619
666.621
666.622
666.623
666.625
666.626
666.628
666.629
666.631
666.632
666.634
666.636
666.638
666.64
666.642
666.644
666.646
666.648
666.65
666.653
666.655
666.657
666.66
666.663
666.665
666.668
666.671
666.674
666.677
666.68
666.684
666.687
666.691
666.694
666.698
666.702
666.706
666.71
666.714
666.718
666.722
666.727
666.731
666.736
666.74
666.745
666.75
666.755
666.76
666.766
666.771
666.776
666.782
666.787
666.793
666.799
666.805
666.811
666.816
666.822
666.828
666.834
666.841
666.847
666.853
666.859
666.865
666.871
666.877
666.883
666.889
666.895
666.901
666.906
666.912
666.917
666.923
666.928
666.933
666.938
666.943
666.947
666.951
666.955
666.959
666.963
666.966
666.969
666.972
666.975
666.977
666.979
666.981
666.982
666.983
666.984
666.985
666.985
666.985
666.984
666.984
666.983
666.981
666.98
666.978
666.976
666.974
666.971
666.968
666.965
666.962
666.958
666.954
666.95
666.946
666.942
666.938
666.933
666.928
666.924
666.919
666.914
666.909
666.904
666.898
666.893
666.888
666.883
666.877
666.872
666.867
666.862
666.856
666.851
666.846
666.841
666.836
666.831
666.826
666.821
666.816
666.812
666.807
666.803
666.798
666.794
666.789
666.785
666.781
666.777
666.773
666.77
666.766
666.762
666.759
666.756
666.752
666.749
666.746
666.743
666.74
666.737
666.734
666.732
666.729
666.727
666.724
666.722
666.72
666.718
666.716
666.714
666.712
666.71
666.708
666.706
666.705
666.703
666.702
666.7
666.699
666.697
666.696
666.695
666.693
666.692
666.691
666.69
666.689
666.688
666.687
666.686
666.685
666.684
666.684
666.683
666.682
666.681
666.681
666.68
666.68
666.679
666.678
666.678
666.677
666.677
666.676
666.676
666.675
666.675
666.675
666.674
666.674
666.674
666.673
666.673
666.673
666.672
666.672
666.672
666.672
666.671
666.671
666.671
666.671
666.67
666.67
666.67
666.67
666.67
666.67
666.669
666.669
666.669
666.669
666.669
666.669
)
;

boundaryField
{
    topWall
    {
        type            empty;
    }
    bottomWall
    {
        type            empty;
    }
    leftAndRight_half1
    {
        type            cyclic;
    }
    leftAndRight_half0
    {
        type            cyclic;
    }
    frontAndBack
    {
        type            empty;
    }
}


// ************************************************************************* //
