/*--------------------------------*- C++ -*----------------------------------*\
  =========                 |
  \\      /  F ield         | OpenFOAM: The Open Source CFD Toolbox
   \\    /   O peration     | Website:  https://openfoam.org
    \\  /    A nd           | Version:  9
     \\/     M anipulation  |
\*---------------------------------------------------------------------------*/
FoamFile
{
    format      ascii;
    class       volScalarField;
    location    "1";
    object      f_1;
}
// * * * * * * * * * * * * * * * * * * * * * * * * * * * * * * * * * * * * * //

dimensions      [1 -3 0 0 0 0 0];

internalField   nonuniform List<scalar> 
1000
(
168.902
168.901
168.9
168.899
168.898
168.897
168.897
168.896
168.895
168.894
168.894
168.893
168.892
168.892
168.891
168.891
168.89
168.89
168.889
168.889
168.888
168.888
168.888
168.887
168.887
168.887
168.886
168.886
168.886
168.886
168.885
168.885
168.885
168.885
168.884
168.884
168.884
168.884
168.884
168.884
168.884
168.883
168.883
168.883
168.883
168.883
168.883
168.883
168.883
168.883
168.883
168.882
168.882
168.882
168.882
168.882
168.882
168.882
168.882
168.882
168.882
168.882
168.882
168.882
168.882
168.882
168.882
168.882
168.882
168.882
168.882
168.882
168.882
168.882
168.882
168.882
168.882
168.882
168.882
168.882
168.882
168.882
168.882
168.882
168.882
168.882
168.882
168.882
168.882
168.882
168.882
168.882
168.882
168.882
168.882
168.882
168.882
168.882
168.882
168.882
168.882
168.882
168.882
168.882
168.882
168.882
168.882
168.882
168.882
168.882
168.882
168.882
168.882
168.882
168.882
168.882
168.882
168.882
168.882
168.882
168.882
168.882
168.882
168.882
168.882
168.883
168.883
168.883
168.883
168.883
168.883
168.883
168.883
168.883
168.883
168.883
168.883
168.883
168.883
168.883
168.884
168.884
168.884
168.884
168.884
168.884
168.884
168.884
168.884
168.884
168.885
168.885
168.885
168.885
168.885
168.885
168.885
168.886
168.886
168.886
168.886
168.886
168.886
168.887
168.887
168.887
168.887
168.887
168.888
168.888
168.888
168.888
168.889
168.889
168.889
168.889
168.89
168.89
168.89
168.89
168.891
168.891
168.891
168.892
168.892
168.892
168.893
168.893
168.894
168.894
168.894
168.895
168.895
168.896
168.896
168.897
168.897
168.898
168.898
168.899
168.899
168.9
168.901
168.901
168.902
168.902
168.903
168.904
168.904
168.905
168.906
168.907
168.907
168.908
168.909
168.91
168.911
168.912
168.912
168.913
168.914
168.915
168.916
168.917
168.918
168.919
168.921
168.922
168.923
168.924
168.925
168.927
168.928
168.929
168.93
168.932
168.933
168.935
168.936
168.938
168.939
168.941
168.942
168.944
168.946
168.948
168.949
168.951
168.953
168.955
168.957
168.959
168.961
168.963
168.965
168.967
168.969
168.972
168.974
168.976
168.979
168.981
168.984
168.986
168.989
168.992
168.994
168.997
169
169.003
169.006
169.009
169.012
169.015
169.018
169.022
169.025
169.028
169.032
169.035
169.039
169.043
169.046
169.05
169.054
169.058
169.062
169.066
169.07
169.075
169.079
169.083
169.088
169.092
169.097
169.102
169.106
169.111
169.116
169.121
169.127
169.132
169.137
169.142
169.148
169.154
169.159
169.165
169.171
169.177
169.183
169.189
169.195
169.202
169.208
169.215
169.221
169.228
169.235
169.242
169.249
169.256
169.263
169.271
169.278
169.286
169.293
169.301
169.309
169.317
169.325
169.333
169.342
169.35
169.359
169.368
169.376
169.385
169.394
169.404
169.413
169.422
169.432
169.442
169.451
169.461
169.471
169.481
169.492
169.502
169.513
169.523
169.534
169.545
169.556
169.567
169.579
169.59
169.602
169.613
169.625
169.637
169.649
169.661
169.674
169.686
169.699
169.712
169.725
169.738
169.751
169.764
169.778
169.791
169.805
169.819
169.833
169.847
169.861
169.876
169.89
169.905
169.92
169.935
169.95
169.965
169.981
169.996
170.012
170.028
170.044
170.06
170.076
170.092
170.109
170.126
170.142
170.159
170.176
170.194
170.211
170.229
170.246
170.264
170.282
170.3
170.319
170.337
170.356
170.374
170.393
170.412
170.431
170.45
170.47
170.489
170.509
170.529
170.549
170.569
170.589
170.61
170.63
170.651
170.672
170.693
170.714
170.735
170.756
170.778
170.799
170.821
170.843
170.865
170.887
170.91
170.932
170.955
170.978
171.001
171.024
171.047
171.07
171.093
171.117
171.141
171.165
171.189
171.213
171.237
171.261
171.286
171.31
171.335
171.36
171.385
171.41
171.436
171.461
171.487
171.512
171.538
171.564
171.59
171.616
171.643
171.669
171.696
171.722
171.749
171.776
171.803
171.83
171.858
171.885
171.913
171.94
171.968
171.996
172.024
172.052
172.081
172.109
172.137
172.166
172.195
172.224
172.253
172.282
172.311
172.34
172.37
172.399
172.429
172.459
172.489
172.519
172.549
172.579
172.609
172.64
172.67
172.701
172.732
172.763
172.794
172.825
172.856
172.887
172.919
172.95
172.982
173.013
173.045
173.077
173.109
173.141
173.174
173.206
173.238
173.271
173.303
173.336
173.369
173.402
173.435
173.468
173.501
173.534
173.568
173.601
173.635
173.668
173.702
173.736
173.77
173.804
173.838
173.872
173.907
173.941
173.976
174.01
174.045
174.079
174.114
174.149
174.184
174.219
174.254
174.29
174.325
174.36
174.396
174.431
174.467
174.503
174.539
174.575
174.611
174.647
174.683
174.719
174.755
174.792
174.828
174.865
174.901
174.938
174.975
175.011
175.048
175.085
175.122
175.16
175.197
175.234
175.271
175.309
175.346
175.384
175.421
175.459
175.497
175.535
175.572
175.61
175.648
175.687
175.725
175.763
175.801
175.84
175.878
175.916
175.955
175.994
176.032
176.071
176.11
176.149
176.188
176.227
176.266
176.305
176.344
176.383
176.422
176.462
176.501
176.54
176.58
176.619
176.659
176.699
176.738
176.778
176.818
176.858
176.898
176.938
176.978
177.018
177.058
177.098
177.139
177.179
177.219
177.26
177.3
177.34
177.381
177.422
177.462
177.503
177.544
177.584
177.625
177.666
177.707
177.748
177.789
177.83
177.871
177.912
177.953
177.994
178.035
178.077
178.118
178.159
178.201
178.242
178.283
178.325
178.366
178.408
178.449
178.491
178.532
178.574
178.616
178.657
178.699
178.741
178.783
178.824
178.866
178.908
178.95
178.992
179.034
179.075
179.117
179.159
179.201
179.243
179.285
179.327
179.369
179.411
179.453
179.495
179.537
179.579
179.621
179.663
179.705
179.747
179.789
179.831
179.873
179.915
179.957
179.998
180.04
180.082
180.124
180.166
180.208
180.249
180.291
180.333
180.374
180.416
180.458
180.499
180.54
180.582
180.623
180.664
180.706
180.747
180.788
180.829
180.87
180.911
180.951
180.992
181.032
181.073
181.113
181.153
181.193
181.233
181.273
181.313
181.352
181.392
181.431
181.47
181.509
181.548
181.586
181.625
181.663
181.701
181.738
181.776
181.813
181.85
181.886
181.923
181.959
181.995
182.03
182.066
182.1
182.135
182.169
182.203
182.236
182.269
182.302
182.334
182.365
182.397
182.427
182.458
182.487
182.516
182.545
182.573
182.6
182.627
182.653
182.678
182.703
182.727
182.75
182.772
182.793
182.814
182.834
182.853
182.87
182.887
182.903
182.918
182.932
182.944
182.956
182.966
182.975
182.983
182.989
182.994
182.997
183
183
182.999
182.997
182.992
182.986
182.979
182.969
182.958
182.944
182.929
182.912
182.892
182.87
182.847
182.821
182.792
182.762
182.728
182.693
182.655
182.614
182.57
182.524
182.475
182.424
182.369
182.312
182.251
182.188
182.121
182.052
181.979
181.903
181.824
181.742
181.657
181.568
181.476
181.381
181.282
181.181
181.076
180.967
180.856
180.741
180.623
180.502
180.378
180.251
180.121
179.988
179.852
179.714
179.572
179.428
179.282
179.133
178.982
178.829
178.673
178.516
178.357
178.196
178.034
177.871
177.706
177.54
177.374
177.206
177.038
176.87
176.702
176.533
176.364
176.196
176.028
175.861
175.694
175.528
175.363
175.199
175.037
174.876
174.717
174.559
174.403
174.249
174.097
173.947
173.799
173.653
173.51
173.369
173.231
173.095
172.962
172.832
172.704
172.579
172.457
172.337
172.22
172.106
171.995
171.887
171.781
171.679
171.579
171.481
171.387
171.295
171.206
171.119
171.035
170.954
170.875
170.798
170.724
170.653
170.583
170.516
170.452
170.389
170.329
170.27
170.214
170.16
170.108
170.057
170.009
169.962
169.917
169.873
169.831
169.791
169.753
169.715
169.68
169.645
169.612
169.581
169.55
169.521
169.493
169.466
169.44
169.415
169.392
169.369
169.347
169.326
169.306
169.287
169.268
169.251
169.234
169.218
169.202
169.188
169.173
169.16
169.147
169.135
169.123
169.112
169.101
169.09
169.081
169.071
169.062
169.054
169.045
169.038
169.03
169.023
169.016
169.01
169.003
168.997
168.992
168.986
168.981
168.976
168.972
168.967
168.963
168.959
168.955
168.952
168.948
168.945
168.942
168.939
168.936
168.933
168.93
168.928
168.926
168.923
168.921
168.919
168.917
168.915
168.914
168.912
168.91
168.909
168.907
168.906
168.905
168.904
)
;

boundaryField
{
    topWall
    {
        type            empty;
    }
    bottomWall
    {
        type            empty;
    }
    leftAndRight_half1
    {
        type            cyclic;
    }
    leftAndRight_half0
    {
        type            cyclic;
    }
    frontAndBack
    {
        type            empty;
    }
}


// ************************************************************************* //
