/*--------------------------------*- C++ -*----------------------------------*\
  =========                 |
  \\      /  F ield         | OpenFOAM: The Open Source CFD Toolbox
   \\    /   O peration     | Website:  https://openfoam.org
    \\  /    A nd           | Version:  9
     \\/     M anipulation  |
\*---------------------------------------------------------------------------*/
FoamFile
{
    format      ascii;
    class       volScalarField;
    location    "1";
    object      f_2;
}
// * * * * * * * * * * * * * * * * * * * * * * * * * * * * * * * * * * * * * //

dimensions      [1 -3 0 0 0 0 0];

internalField   nonuniform List<scalar> 
1000
(
164.463
164.464
164.465
164.466
164.467
164.467
164.468
164.469
164.469
164.47
164.471
164.471
164.472
164.472
164.473
164.473
164.474
164.474
164.474
164.475
164.475
164.475
164.476
164.476
164.476
164.477
164.477
164.477
164.477
164.478
164.478
164.478
164.478
164.478
164.478
164.479
164.479
164.479
164.479
164.479
164.479
164.479
164.479
164.48
164.48
164.48
164.48
164.48
164.48
164.48
164.48
164.48
164.48
164.48
164.48
164.48
164.48
164.48
164.48
164.48
164.48
164.481
164.481
164.481
164.481
164.481
164.481
164.481
164.481
164.481
164.481
164.481
164.481
164.481
164.481
164.481
164.481
164.481
164.481
164.481
164.481
164.481
164.481
164.481
164.481
164.481
164.481
164.481
164.481
164.481
164.481
164.481
164.481
164.481
164.481
164.481
164.481
164.481
164.481
164.481
164.481
164.481
164.481
164.481
164.481
164.48
164.48
164.48
164.48
164.48
164.48
164.48
164.48
164.48
164.48
164.48
164.48
164.48
164.48
164.48
164.48
164.48
164.48
164.48
164.48
164.48
164.48
164.48
164.48
164.48
164.479
164.479
164.479
164.479
164.479
164.479
164.479
164.479
164.479
164.479
164.479
164.479
164.478
164.478
164.478
164.478
164.478
164.478
164.478
164.478
164.478
164.477
164.477
164.477
164.477
164.477
164.477
164.477
164.476
164.476
164.476
164.476
164.476
164.475
164.475
164.475
164.475
164.475
164.474
164.474
164.474
164.474
164.473
164.473
164.473
164.473
164.472
164.472
164.472
164.471
164.471
164.471
164.47
164.47
164.47
164.469
164.469
164.468
164.468
164.468
164.467
164.467
164.466
164.466
164.465
164.465
164.464
164.464
164.463
164.463
164.462
164.461
164.461
164.46
164.46
164.459
164.458
164.457
164.457
164.456
164.455
164.454
164.454
164.453
164.452
164.451
164.45
164.449
164.448
164.447
164.446
164.445
164.444
164.443
164.442
164.441
164.44
164.439
164.438
164.436
164.435
164.434
164.432
164.431
164.43
164.428
164.427
164.425
164.424
164.422
164.421
164.419
164.417
164.416
164.414
164.412
164.41
164.408
164.406
164.404
164.402
164.4
164.398
164.396
164.394
164.392
164.389
164.387
164.385
164.382
164.38
164.377
164.375
164.372
164.369
164.367
164.364
164.361
164.358
164.355
164.352
164.349
164.346
164.343
164.339
164.336
164.333
164.329
164.326
164.322
164.318
164.315
164.311
164.307
164.303
164.299
164.295
164.291
164.286
164.282
164.278
164.273
164.269
164.264
164.259
164.254
164.25
164.245
164.24
164.234
164.229
164.224
164.219
164.213
164.208
164.202
164.196
164.19
164.184
164.178
164.172
164.166
164.16
164.153
164.147
164.14
164.134
164.127
164.12
164.113
164.106
164.099
164.091
164.084
164.076
164.069
164.061
164.053
164.045
164.037
164.029
164.021
164.012
164.004
163.995
163.986
163.978
163.969
163.96
163.95
163.941
163.932
163.922
163.912
163.903
163.893
163.883
163.873
163.862
163.852
163.842
163.831
163.82
163.809
163.798
163.787
163.776
163.765
163.753
163.741
163.73
163.718
163.706
163.694
163.681
163.669
163.656
163.644
163.631
163.618
163.605
163.592
163.579
163.565
163.552
163.538
163.524
163.51
163.496
163.482
163.467
163.453
163.438
163.424
163.409
163.394
163.378
163.363
163.348
163.332
163.316
163.301
163.285
163.269
163.252
163.236
163.219
163.203
163.186
163.169
163.152
163.135
163.118
163.1
163.083
163.065
163.047
163.029
163.011
162.993
162.975
162.956
162.937
162.919
162.9
162.881
162.862
162.842
162.823
162.803
162.784
162.764
162.744
162.724
162.704
162.683
162.663
162.642
162.622
162.601
162.58
162.559
162.538
162.516
162.495
162.473
162.452
162.43
162.408
162.386
162.364
162.341
162.319
162.296
162.274
162.251
162.228
162.205
162.182
162.158
162.135
162.111
162.088
162.064
162.04
162.016
161.992
161.968
161.944
161.919
161.895
161.87
161.845
161.82
161.795
161.77
161.745
161.72
161.694
161.669
161.643
161.617
161.591
161.565
161.539
161.513
161.487
161.46
161.434
161.407
161.381
161.354
161.327
161.3
161.273
161.246
161.218
161.191
161.164
161.136
161.108
161.081
161.053
161.025
160.997
160.968
160.94
160.912
160.883
160.855
160.826
160.798
160.769
160.74
160.711
160.682
160.653
160.624
160.594
160.565
160.535
160.506
160.476
160.446
160.417
160.387
160.357
160.327
160.297
160.266
160.236
160.206
160.175
160.145
160.114
160.083
160.053
160.022
159.991
159.96
159.929
159.898
159.867
159.835
159.804
159.773
159.741
159.71
159.678
159.646
159.614
159.583
159.551
159.519
159.487
159.455
159.423
159.39
159.358
159.326
159.293
159.261
159.228
159.196
159.163
159.13
159.098
159.065
159.032
158.999
158.966
158.933
158.9
158.867
158.834
158.8
158.767
158.734
158.7
158.667
158.633
158.6
158.566
158.532
158.498
158.465
158.431
158.397
158.363
158.329
158.295
158.261
158.227
158.193
158.158
158.124
158.09
158.055
158.021
157.987
157.952
157.918
157.883
157.848
157.814
157.779
157.744
157.71
157.675
157.64
157.605
157.57
157.535
157.5
157.465
157.43
157.395
157.36
157.325
157.289
157.254
157.219
157.184
157.148
157.113
157.077
157.042
157.006
156.971
156.935
156.9
156.864
156.829
156.793
156.757
156.722
156.686
156.65
156.614
156.579
156.543
156.507
156.471
156.435
156.399
156.363
156.327
156.291
156.255
156.219
156.183
156.147
156.111
156.075
156.039
156.003
155.967
155.931
155.895
155.858
155.822
155.786
155.75
155.714
155.677
155.641
155.605
155.569
155.532
155.496
155.46
155.423
155.387
155.351
155.315
155.278
155.242
155.206
155.169
155.133
155.097
155.061
155.024
154.988
154.952
154.915
154.879
154.843
154.807
154.771
154.734
154.698
154.662
154.626
154.59
154.554
154.518
154.482
154.446
154.41
154.374
154.338
154.302
154.266
154.23
154.194
154.158
154.123
154.087
154.051
154.016
153.98
153.945
153.91
153.874
153.839
153.804
153.769
153.733
153.698
153.663
153.629
153.594
153.559
153.525
153.49
153.456
153.421
153.387
153.353
153.319
153.285
153.252
153.218
153.185
153.151
153.118
153.085
153.052
153.02
152.987
152.955
152.923
152.891
152.859
152.827
152.796
152.765
152.734
152.703
152.673
152.643
152.613
152.583
152.554
152.525
152.496
152.468
152.44
152.412
152.385
152.358
152.331
152.305
152.279
152.254
152.229
152.204
152.18
152.157
152.134
152.112
152.09
152.068
152.048
152.028
152.008
151.989
151.971
151.954
151.937
151.921
151.906
151.892
151.878
151.865
151.854
151.843
151.833
151.824
151.816
151.809
151.804
151.799
151.796
151.793
151.792
151.793
151.794
151.797
151.802
151.807
151.815
151.824
151.834
151.846
151.86
151.875
151.892
151.911
151.932
151.955
151.98
152.006
152.035
152.066
152.099
152.134
152.172
152.212
152.254
152.299
152.346
152.395
152.447
152.502
152.559
152.619
152.681
152.746
152.814
152.885
152.958
153.035
153.114
153.196
153.281
153.368
153.459
153.552
153.649
153.748
153.85
153.954
154.062
154.172
154.285
154.4
154.518
154.639
154.762
154.888
155.015
155.145
155.277
155.412
155.548
155.686
155.825
155.967
156.109
156.254
156.399
156.546
156.693
156.841
156.991
157.14
157.29
157.44
157.591
157.741
157.892
158.042
158.191
158.34
158.489
158.636
158.783
158.928
159.072
159.215
159.357
159.497
159.635
159.771
159.906
160.039
160.17
160.298
160.425
160.549
160.672
160.791
160.909
161.024
161.137
161.247
161.355
161.46
161.563
161.663
161.761
161.857
161.949
162.04
162.128
162.213
162.296
162.377
162.455
162.531
162.605
162.677
162.746
162.813
162.878
162.94
163.001
163.06
163.116
163.171
163.224
163.275
163.324
163.371
163.417
163.461
163.503
163.544
163.584
163.622
163.658
163.693
163.727
163.759
163.79
163.82
163.849
163.876
163.903
163.928
163.953
163.976
163.999
164.02
164.041
164.06
164.079
164.098
164.115
164.132
164.147
164.163
164.177
164.191
164.205
164.217
164.23
164.241
164.253
164.263
164.274
164.283
164.293
164.302
164.31
164.318
164.326
164.333
164.34
164.347
164.354
164.36
164.366
164.371
164.377
164.382
164.387
164.391
164.396
164.4
164.404
164.408
164.411
164.415
164.418
164.421
164.424
164.427
164.43
164.432
164.435
164.437
164.439
164.441
164.443
164.445
164.447
164.449
164.451
164.452
164.454
164.455
164.456
164.458
164.459
164.46
164.461
164.462
)
;

boundaryField
{
    topWall
    {
        type            empty;
    }
    bottomWall
    {
        type            empty;
    }
    leftAndRight_half1
    {
        type            cyclic;
    }
    leftAndRight_half0
    {
        type            cyclic;
    }
    frontAndBack
    {
        type            empty;
    }
}


// ************************************************************************* //
