/*--------------------------------*- C++ -*----------------------------------*\
  =========                 |
  \\      /  F ield         | OpenFOAM: The Open Source CFD Toolbox
   \\    /   O peration     | Website:  https://openfoam.org
    \\  /    A nd           | Version:  9
     \\/     M anipulation  |
\*---------------------------------------------------------------------------*/
FoamFile
{
    format      ascii;
    class       volScalarField;
    location    "1";
    object      p;
}
// * * * * * * * * * * * * * * * * * * * * * * * * * * * * * * * * * * * * * //

dimensions      [1 -1 -2 0 0 0 0];

internalField   nonuniform List<scalar> 
1000
(
100114
100114
100113
100112
100111
100110
100110
100109
100108
100108
100107
100107
100106
100106
100105
100105
100104
100104
100104
100103
100103
100103
100102
100102
100102
100101
100101
100101
100101
100101
100100
100100
100100
100100
100100
100099
100099
100099
100099
100099
100099
100099
100099
100099
100098
100098
100098
100098
100098
100098
100098
100098
100098
100098
100098
100098
100098
100098
100097
100097
100097
100097
100097
100097
100097
100097
100097
100097
100097
100097
100097
100097
100097
100097
100097
100097
100097
100097
100097
100097
100097
100097
100097
100097
100097
100097
100097
100097
100097
100097
100097
100097
100097
100097
100097
100097
100097
100097
100097
100097
100097
100097
100097
100097
100097
100097
100096
100096
100096
100096
100096
100096
100096
100096
100096
100096
100096
100096
100096
100096
100096
100096
100096
100096
100096
100096
100096
100096
100096
100096
100096
100096
100096
100096
100096
100096
100096
100096
100096
100096
100096
100096
100096
100096
100095
100095
100095
100095
100095
100095
100095
100095
100095
100095
100095
100095
100095
100095
100095
100095
100095
100094
100094
100094
100094
100094
100094
100094
100094
100094
100094
100094
100094
100093
100093
100093
100093
100093
100093
100093
100093
100093
100092
100092
100092
100092
100092
100092
100092
100091
100091
100091
100091
100091
100091
100091
100090
100090
100090
100090
100090
100089
100089
100089
100089
100089
100088
100088
100088
100088
100087
100087
100087
100087
100086
100086
100086
100086
100085
100085
100085
100085
100084
100084
100084
100083
100083
100083
100082
100082
100082
100081
100081
100080
100080
100080
100079
100079
100079
100078
100078
100077
100077
100076
100076
100076
100075
100075
100074
100074
100073
100073
100072
100072
100071
100071
100070
100070
100069
100068
100068
100067
100067
100066
100066
100065
100064
100064
100063
100063
100062
100061
100061
100060
100059
100059
100058
100057
100057
100056
100055
100055
100054
100053
100052
100052
100051
100050
100049
100049
100048
100047
100046
100046
100045
100044
100043
100042
100042
100041
100040
100039
100038
100038
100037
100036
100035
100034
100033
100033
100032
100031
100030
100029
100028
100027
100027
100026
100025
100024
100023
100022
100021
100021
100020
100019
100018
100017
100016
100015
100015
100014
100013
100012
100011
100010
100010
100009
100008
100007
100006
100006
100005
100004
100003
100003
100002
100001
100000
99999.6
99998.9
99998.2
99997.5
99996.8
99996.1
99995.4
99994.8
99994.1
99993.5
99992.9
99992.3
99991.7
99991.2
99990.6
99990.1
99989.5
99989
99988.5
99988.1
99987.6
99987.2
99986.8
99986.4
99986
99985.6
99985.3
99985
99984.7
99984.4
99984.1
99983.9
99983.7
99983.5
99983.3
99983.2
99983.1
99983
99982.9
99982.9
99982.9
99982.9
99982.9
99983
99983.1
99983.2
99983.4
99983.6
99983.8
99984
99984.3
99984.6
99985
99985.3
99985.8
99986.2
99986.7
99987.2
99987.7
99988.3
99988.9
99989.6
99990.3
99991
99991.7
99992.5
99993.4
99994.3
99995.2
99996.1
99997.1
99998.2
99999.2
100000
100002
100003
100004
100005
100007
100008
100009
100011
100012
100014
100015
100017
100019
100021
100022
100024
100026
100028
100030
100032
100034
100036
100038
100041
100043
100045
100048
100050
100053
100055
100058
100060
100063
100066
100069
100071
100074
100077
100080
100083
100087
100090
100093
100096
100100
100103
100107
100110
100114
100118
100121
100125
100129
100133
100137
100141
100145
100149
100153
100158
100162
100166
100171
100175
100180
100185
100189
100194
100199
100204
100209
100214
100219
100224
100229
100235
100240
100245
100251
100257
100262
100268
100274
100280
100285
100291
100298
100304
100310
100316
100322
100329
100335
100342
100348
100355
100362
100369
100376
100383
100390
100397
100404
100411
100418
100426
100433
100441
100448
100456
100464
100472
100480
100488
100496
100504
100512
100520
100529
100537
100545
100554
100563
100571
100580
100589
100598
100607
100616
100625
100634
100644
100653
100663
100672
100682
100691
100701
100711
100721
100731
100741
100751
100761
100772
100782
100793
100803
100814
100824
100835
100846
100857
100868
100879
100890
100901
100913
100924
100936
100947
100959
100971
100982
100994
101006
101018
101030
101042
101055
101067
101079
101092
101105
101117
101130
101143
101156
101169
101182
101195
101208
101221
101235
101248
101262
101275
101289
101303
101317
101331
101345
101359
101373
101387
101401
101416
101430
101445
101460
101474
101489
101504
101519
101534
101549
101564
101580
101595
101611
101626
101642
101657
101673
101689
101705
101721
101737
101753
101770
101786
101802
101819
101835
101852
101869
101886
101903
101920
101937
101954
101971
101988
102006
102023
102041
102058
102076
102094
102112
102130
102148
102166
102184
102203
102221
102239
102258
102276
102295
102314
102333
102352
102371
102390
102409
102428
102447
102467
102486
102506
102526
102545
102565
102585
102605
102625
102645
102665
102686
102706
102726
102747
102767
102788
102809
102830
102850
102871
102892
102913
102935
102956
102977
102999
103020
103042
103063
103085
103107
103129
103150
103172
103195
103217
103239
103261
103283
103306
103328
103351
103373
103396
103419
103441
103464
103487
103510
103533
103556
103579
103603
103626
103649
103673
103696
103719
103743
103766
103790
103814
103837
103861
103885
103909
103932
103956
103980
104004
104028
104052
104076
104100
104124
104148
104172
104196
104220
104244
104268
104292
104316
104340
104364
104388
104412
104436
104460
104484
104508
104531
104555
104578
104602
104625
104648
104672
104695
104718
104740
104763
104785
104808
104830
104852
104874
104895
104916
104937
104958
104979
104999
105019
105038
105058
105076
105095
105113
105131
105148
105164
105181
105196
105211
105226
105240
105253
105265
105277
105288
105299
105308
105317
105324
105331
105337
105342
105346
105348
105350
105351
105350
105348
105344
105340
105334
105326
105317
105307
105295
105282
105267
105250
105232
105211
105190
105166
105141
105113
105084
105054
105021
104987
104950
104912
104872
104830
104787
104741
104694
104645
104594
104542
104488
104433
104376
104318
104258
104197
104134
104071
104006
103941
103874
103807
103739
103670
103601
103531
103460
103390
103319
103248
103177
103106
103035
102964
102894
102824
102754
102685
102616
102548
102481
102415
102349
102284
102220
102157
102095
102034
101975
101916
101858
101802
101747
101692
101640
101588
101537
101488
101440
101393
101348
101303
101260
101218
101177
101138
101099
101062
101026
100990
100956
100924
100892
100861
100831
100802
100774
100747
100721
100696
100672
100649
100626
100605
100584
100564
100544
100526
100508
100490
100474
100458
100442
100428
100413
100400
100387
100374
100362
100350
100339
100329
100318
100309
100299
100290
100281
100273
100265
100258
100250
100243
100237
100230
100224
100218
100213
100207
100202
100197
100193
100188
100184
100180
100176
100172
100169
100165
100162
100159
100156
100153
100150
100148
100145
100143
100141
100139
100137
100135
100133
100131
100129
100128
100126
100125
100123
100122
100121
100120
100119
100117
100116
100115
)
;

boundaryField
{
    topWall
    {
        type            empty;
    }
    bottomWall
    {
        type            empty;
    }
    leftAndRight_half1
    {
        type            cyclic;
    }
    leftAndRight_half0
    {
        type            cyclic;
    }
    frontAndBack
    {
        type            empty;
    }
}


// ************************************************************************* //
