/*--------------------------------*- C++ -*----------------------------------*\
  =========                 |
  \\      /  F ield         | OpenFOAM: The Open Source CFD Toolbox
   \\    /   O peration     | Website:  https://openfoam.org
    \\  /    A nd           | Version:  9
     \\/     M anipulation  |
\*---------------------------------------------------------------------------*/
FoamFile
{
    format      ascii;
    class       volVectorField;
    location    "1";
    object      U;
}
// * * * * * * * * * * * * * * * * * * * * * * * * * * * * * * * * * * * * * //

dimensions      [0 1 -1 0 0 0 0];

internalField   nonuniform List<vector> 
1000
(
(0.44391 0 0)
(0.443705 0 0)
(0.443511 0 0)
(0.443327 0 0)
(0.443152 0 0)
(0.442986 0 0)
(0.442829 0 0)
(0.442679 0 0)
(0.442537 0 0)
(0.442402 0 0)
(0.442275 0 0)
(0.442153 0 0)
(0.442038 0 0)
(0.441929 0 0)
(0.441826 0 0)
(0.441728 0 0)
(0.441635 0 0)
(0.441546 0 0)
(0.441463 0 0)
(0.441384 0 0)
(0.441309 0 0)
(0.441237 0 0)
(0.44117 0 0)
(0.441106 0 0)
(0.441046 0 0)
(0.440988 0 0)
(0.440934 0 0)
(0.440883 0 0)
(0.440834 0 0)
(0.440788 0 0)
(0.440745 0 0)
(0.440703 0 0)
(0.440665 0 0)
(0.440628 0 0)
(0.440593 0 0)
(0.44056 0 0)
(0.440529 0 0)
(0.440499 0 0)
(0.440471 0 0)
(0.440445 0 0)
(0.44042 0 0)
(0.440397 0 0)
(0.440375 0 0)
(0.440354 0 0)
(0.440334 0 0)
(0.440315 0 0)
(0.440298 0 0)
(0.440281 0 0)
(0.440266 0 0)
(0.440251 0 0)
(0.440237 0 0)
(0.440224 0 0)
(0.440212 0 0)
(0.440201 0 0)
(0.44019 0 0)
(0.44018 0 0)
(0.44017 0 0)
(0.440161 0 0)
(0.440153 0 0)
(0.440145 0 0)
(0.440138 0 0)
(0.440131 0 0)
(0.440125 0 0)
(0.440119 0 0)
(0.440113 0 0)
(0.440108 0 0)
(0.440104 0 0)
(0.440099 0 0)
(0.440095 0 0)
(0.440092 0 0)
(0.440089 0 0)
(0.440086 0 0)
(0.440083 0 0)
(0.44008 0 0)
(0.440078 0 0)
(0.440077 0 0)
(0.440075 0 0)
(0.440074 0 0)
(0.440072 0 0)
(0.440072 0 0)
(0.440071 0 0)
(0.440071 0 0)
(0.44007 0 0)
(0.44007 0 0)
(0.440071 0 0)
(0.440071 0 0)
(0.440072 0 0)
(0.440072 0 0)
(0.440073 0 0)
(0.440075 0 0)
(0.440076 0 0)
(0.440078 0 0)
(0.440079 0 0)
(0.440081 0 0)
(0.440084 0 0)
(0.440086 0 0)
(0.440088 0 0)
(0.440091 0 0)
(0.440094 0 0)
(0.440097 0 0)
(0.440101 0 0)
(0.440104 0 0)
(0.440108 0 0)
(0.440112 0 0)
(0.440116 0 0)
(0.440121 0 0)
(0.440125 0 0)
(0.44013 0 0)
(0.440135 0 0)
(0.440141 0 0)
(0.440146 0 0)
(0.440152 0 0)
(0.440158 0 0)
(0.440164 0 0)
(0.440171 0 0)
(0.440178 0 0)
(0.440185 0 0)
(0.440193 0 0)
(0.440201 0 0)
(0.440209 0 0)
(0.440217 0 0)
(0.440226 0 0)
(0.440235 0 0)
(0.440245 0 0)
(0.440255 0 0)
(0.440265 0 0)
(0.440276 0 0)
(0.440287 0 0)
(0.440298 0 0)
(0.44031 0 0)
(0.440322 0 0)
(0.440335 0 0)
(0.440349 0 0)
(0.440362 0 0)
(0.440377 0 0)
(0.440391 0 0)
(0.440407 0 0)
(0.440423 0 0)
(0.440439 0 0)
(0.440456 0 0)
(0.440474 0 0)
(0.440492 0 0)
(0.440511 0 0)
(0.44053 0 0)
(0.440551 0 0)
(0.440572 0 0)
(0.440593 0 0)
(0.440616 0 0)
(0.440639 0 0)
(0.440663 0 0)
(0.440688 0 0)
(0.440713 0 0)
(0.44074 0 0)
(0.440767 0 0)
(0.440795 0 0)
(0.440825 0 0)
(0.440855 0 0)
(0.440886 0 0)
(0.440918 0 0)
(0.440952 0 0)
(0.440986 0 0)
(0.441022 0 0)
(0.441058 0 0)
(0.441096 0 0)
(0.441136 0 0)
(0.441176 0 0)
(0.441218 0 0)
(0.441261 0 0)
(0.441305 0 0)
(0.441351 0 0)
(0.441398 0 0)
(0.441447 0 0)
(0.441497 0 0)
(0.441549 0 0)
(0.441602 0 0)
(0.441657 0 0)
(0.441714 0 0)
(0.441773 0 0)
(0.441833 0 0)
(0.441895 0 0)
(0.441959 0 0)
(0.442025 0 0)
(0.442093 0 0)
(0.442164 0 0)
(0.442236 0 0)
(0.44231 0 0)
(0.442387 0 0)
(0.442465 0 0)
(0.442547 0 0)
(0.44263 0 0)
(0.442716 0 0)
(0.442805 0 0)
(0.442896 0 0)
(0.442989 0 0)
(0.443086 0 0)
(0.443185 0 0)
(0.443287 0 0)
(0.443392 0 0)
(0.4435 0 0)
(0.44361 0 0)
(0.443724 0 0)
(0.443842 0 0)
(0.443962 0 0)
(0.444086 0 0)
(0.444213 0 0)
(0.444344 0 0)
(0.444478 0 0)
(0.444616 0 0)
(0.444758 0 0)
(0.444904 0 0)
(0.445053 0 0)
(0.445207 0 0)
(0.445364 0 0)
(0.445526 0 0)
(0.445692 0 0)
(0.445862 0 0)
(0.446037 0 0)
(0.446217 0 0)
(0.446401 0 0)
(0.44659 0 0)
(0.446784 0 0)
(0.446983 0 0)
(0.447187 0 0)
(0.447396 0 0)
(0.44761 0 0)
(0.44783 0 0)
(0.448055 0 0)
(0.448286 0 0)
(0.448522 0 0)
(0.448765 0 0)
(0.449013 0 0)
(0.449268 0 0)
(0.449529 0 0)
(0.449796 0 0)
(0.450069 0 0)
(0.450349 0 0)
(0.450636 0 0)
(0.45093 0 0)
(0.45123 0 0)
(0.451538 0 0)
(0.451853 0 0)
(0.452175 0 0)
(0.452505 0 0)
(0.452842 0 0)
(0.453188 0 0)
(0.453541 0 0)
(0.453902 0 0)
(0.454271 0 0)
(0.454649 0 0)
(0.455035 0 0)
(0.455429 0 0)
(0.455833 0 0)
(0.456245 0 0)
(0.456667 0 0)
(0.457097 0 0)
(0.457537 0 0)
(0.457987 0 0)
(0.458446 0 0)
(0.458915 0 0)
(0.459394 0 0)
(0.459883 0 0)
(0.460383 0 0)
(0.460893 0 0)
(0.461414 0 0)
(0.461945 0 0)
(0.462487 0 0)
(0.463041 0 0)
(0.463606 0 0)
(0.464182 0 0)
(0.46477 0 0)
(0.46537 0 0)
(0.465981 0 0)
(0.466605 0 0)
(0.467241 0 0)
(0.46789 0 0)
(0.468551 0 0)
(0.469226 0 0)
(0.469913 0 0)
(0.470613 0 0)
(0.471327 0 0)
(0.472054 0 0)
(0.472795 0 0)
(0.47355 0 0)
(0.474319 0 0)
(0.475102 0 0)
(0.475899 0 0)
(0.476712 0 0)
(0.477539 0 0)
(0.47838 0 0)
(0.479238 0 0)
(0.48011 0 0)
(0.480998 0 0)
(0.481902 0 0)
(0.482821 0 0)
(0.483757 0 0)
(0.484708 0 0)
(0.485677 0 0)
(0.486661 0 0)
(0.487663 0 0)
(0.488681 0 0)
(0.489717 0 0)
(0.49077 0 0)
(0.491841 0 0)
(0.492929 0 0)
(0.494035 0 0)
(0.495159 0 0)
(0.496301 0 0)
(0.497461 0 0)
(0.498641 0 0)
(0.499839 0 0)
(0.501055 0 0)
(0.502291 0 0)
(0.503546 0 0)
(0.504821 0 0)
(0.506115 0 0)
(0.507429 0 0)
(0.508763 0 0)
(0.510117 0 0)
(0.511491 0 0)
(0.512886 0 0)
(0.514302 0 0)
(0.515738 0 0)
(0.517195 0 0)
(0.518673 0 0)
(0.520173 0 0)
(0.521693 0 0)
(0.523236 0 0)
(0.5248 0 0)
(0.526386 0 0)
(0.527995 0 0)
(0.529625 0 0)
(0.531278 0 0)
(0.532953 0 0)
(0.534651 0 0)
(0.536372 0 0)
(0.538115 0 0)
(0.539882 0 0)
(0.541672 0 0)
(0.543485 0 0)
(0.545322 0 0)
(0.547183 0 0)
(0.549067 0 0)
(0.550975 0 0)
(0.552907 0 0)
(0.554864 0 0)
(0.556844 0 0)
(0.55885 0 0)
(0.560879 0 0)
(0.562933 0 0)
(0.565012 0 0)
(0.567116 0 0)
(0.569245 0 0)
(0.571399 0 0)
(0.573578 0 0)
(0.575783 0 0)
(0.578013 0 0)
(0.580269 0 0)
(0.58255 0 0)
(0.584856 0 0)
(0.587189 0 0)
(0.589548 0 0)
(0.591932 0 0)
(0.594343 0 0)
(0.59678 0 0)
(0.599243 0 0)
(0.601732 0 0)
(0.604248 0 0)
(0.606791 0 0)
(0.60936 0 0)
(0.611955 0 0)
(0.614577 0 0)
(0.617226 0 0)
(0.619902 0 0)
(0.622605 0 0)
(0.625335 0 0)
(0.628092 0 0)
(0.630875 0 0)
(0.633686 0 0)
(0.636524 0 0)
(0.63939 0 0)
(0.642282 0 0)
(0.645202 0 0)
(0.648149 0 0)
(0.651124 0 0)
(0.654126 0 0)
(0.657155 0 0)
(0.660212 0 0)
(0.663296 0 0)
(0.666408 0 0)
(0.669548 0 0)
(0.672715 0 0)
(0.675909 0 0)
(0.679131 0 0)
(0.682381 0 0)
(0.685658 0 0)
(0.688963 0 0)
(0.692296 0 0)
(0.695656 0 0)
(0.699044 0 0)
(0.70246 0 0)
(0.705903 0 0)
(0.709374 0 0)
(0.712872 0 0)
(0.716398 0 0)
(0.719952 0 0)
(0.723533 0 0)
(0.727142 0 0)
(0.730778 0 0)
(0.734442 0 0)
(0.738133 0 0)
(0.741852 0 0)
(0.745598 0 0)
(0.749372 0 0)
(0.753173 0 0)
(0.757001 0 0)
(0.760857 0 0)
(0.76474 0 0)
(0.76865 0 0)
(0.772587 0 0)
(0.776552 0 0)
(0.780544 0 0)
(0.784563 0 0)
(0.788608 0 0)
(0.792681 0 0)
(0.796781 0 0)
(0.800908 0 0)
(0.805061 0 0)
(0.809241 0 0)
(0.813448 0 0)
(0.817681 0 0)
(0.821942 0 0)
(0.826228 0 0)
(0.830541 0 0)
(0.834881 0 0)
(0.839247 0 0)
(0.843639 0 0)
(0.848057 0 0)
(0.852501 0 0)
(0.856971 0 0)
(0.861468 0 0)
(0.86599 0 0)
(0.870538 0 0)
(0.875112 0 0)
(0.879711 0 0)
(0.884336 0 0)
(0.888987 0 0)
(0.893663 0 0)
(0.898364 0 0)
(0.90309 0 0)
(0.907842 0 0)
(0.912619 0 0)
(0.91742 0 0)
(0.922247 0 0)
(0.927098 0 0)
(0.931974 0 0)
(0.936875 0 0)
(0.9418 0 0)
(0.94675 0 0)
(0.951724 0 0)
(0.956722 0 0)
(0.961744 0 0)
(0.966791 0 0)
(0.971861 0 0)
(0.976955 0 0)
(0.982073 0 0)
(0.987215 0 0)
(0.99238 0 0)
(0.997569 0 0)
(1.00278 0 0)
(1.00802 0 0)
(1.01327 0 0)
(1.01856 0 0)
(1.02386 0 0)
(1.02919 0 0)
(1.03454 0 0)
(1.03991 0 0)
(1.0453 0 0)
(1.05072 0 0)
(1.05616 0 0)
(1.06162 0 0)
(1.06711 0 0)
(1.07261 0 0)
(1.07814 0 0)
(1.08369 0 0)
(1.08926 0 0)
(1.09486 0 0)
(1.10047 0 0)
(1.10611 0 0)
(1.11176 0 0)
(1.11744 0 0)
(1.12314 0 0)
(1.12886 0 0)
(1.1346 0 0)
(1.14036 0 0)
(1.14614 0 0)
(1.15195 0 0)
(1.15777 0 0)
(1.16361 0 0)
(1.16947 0 0)
(1.17536 0 0)
(1.18126 0 0)
(1.18718 0 0)
(1.19313 0 0)
(1.19909 0 0)
(1.20507 0 0)
(1.21107 0 0)
(1.21709 0 0)
(1.22313 0 0)
(1.22919 0 0)
(1.23526 0 0)
(1.24136 0 0)
(1.24747 0 0)
(1.25361 0 0)
(1.25976 0 0)
(1.26593 0 0)
(1.27212 0 0)
(1.27832 0 0)
(1.28455 0 0)
(1.29079 0 0)
(1.29705 0 0)
(1.30333 0 0)
(1.30962 0 0)
(1.31594 0 0)
(1.32227 0 0)
(1.32861 0 0)
(1.33498 0 0)
(1.34136 0 0)
(1.34776 0 0)
(1.35417 0 0)
(1.36061 0 0)
(1.36705 0 0)
(1.37352 0 0)
(1.38 0 0)
(1.3865 0 0)
(1.39301 0 0)
(1.39954 0 0)
(1.40609 0 0)
(1.41265 0 0)
(1.41923 0 0)
(1.42582 0 0)
(1.43243 0 0)
(1.43906 0 0)
(1.4457 0 0)
(1.45235 0 0)
(1.45902 0 0)
(1.46571 0 0)
(1.47241 0 0)
(1.47912 0 0)
(1.48585 0 0)
(1.4926 0 0)
(1.49936 0 0)
(1.50613 0 0)
(1.51292 0 0)
(1.51972 0 0)
(1.52654 0 0)
(1.53337 0 0)
(1.54021 0 0)
(1.54707 0 0)
(1.55394 0 0)
(1.56083 0 0)
(1.56773 0 0)
(1.57464 0 0)
(1.58156 0 0)
(1.5885 0 0)
(1.59546 0 0)
(1.60242 0 0)
(1.6094 0 0)
(1.61639 0 0)
(1.6234 0 0)
(1.63041 0 0)
(1.63744 0 0)
(1.64448 0 0)
(1.65154 0 0)
(1.6586 0 0)
(1.66568 0 0)
(1.67277 0 0)
(1.67988 0 0)
(1.68699 0 0)
(1.69412 0 0)
(1.70126 0 0)
(1.70841 0 0)
(1.71557 0 0)
(1.72274 0 0)
(1.72993 0 0)
(1.73712 0 0)
(1.74433 0 0)
(1.75155 0 0)
(1.75878 0 0)
(1.76602 0 0)
(1.77327 0 0)
(1.78053 0 0)
(1.7878 0 0)
(1.79509 0 0)
(1.80238 0 0)
(1.80968 0 0)
(1.817 0 0)
(1.82432 0 0)
(1.83166 0 0)
(1.839 0 0)
(1.84636 0 0)
(1.85372 0 0)
(1.8611 0 0)
(1.86848 0 0)
(1.87587 0 0)
(1.88328 0 0)
(1.89069 0 0)
(1.89811 0 0)
(1.90554 0 0)
(1.91298 0 0)
(1.92043 0 0)
(1.92789 0 0)
(1.93535 0 0)
(1.94283 0 0)
(1.95031 0 0)
(1.95781 0 0)
(1.96531 0 0)
(1.97282 0 0)
(1.98034 0 0)
(1.98786 0 0)
(1.9954 0 0)
(2.00294 0 0)
(2.01049 0 0)
(2.01805 0 0)
(2.02561 0 0)
(2.03319 0 0)
(2.04077 0 0)
(2.04836 0 0)
(2.05595 0 0)
(2.06355 0 0)
(2.07116 0 0)
(2.07878 0 0)
(2.0864 0 0)
(2.09404 0 0)
(2.10167 0 0)
(2.10932 0 0)
(2.11697 0 0)
(2.12462 0 0)
(2.13229 0 0)
(2.13996 0 0)
(2.14763 0 0)
(2.15531 0 0)
(2.163 0 0)
(2.17069 0 0)
(2.17839 0 0)
(2.1861 0 0)
(2.1938 0 0)
(2.20152 0 0)
(2.20924 0 0)
(2.21696 0 0)
(2.22469 0 0)
(2.23243 0 0)
(2.24016 0 0)
(2.24791 0 0)
(2.25565 0 0)
(2.26341 0 0)
(2.27116 0 0)
(2.27892 0 0)
(2.28668 0 0)
(2.29445 0 0)
(2.30222 0 0)
(2.30999 0 0)
(2.31777 0 0)
(2.32555 0 0)
(2.33333 0 0)
(2.34111 0 0)
(2.3489 0 0)
(2.35669 0 0)
(2.36448 0 0)
(2.37227 0 0)
(2.38007 0 0)
(2.38786 0 0)
(2.39566 0 0)
(2.40346 0 0)
(2.41126 0 0)
(2.41905 0 0)
(2.42685 0 0)
(2.43465 0 0)
(2.44245 0 0)
(2.45025 0 0)
(2.45805 0 0)
(2.46585 0 0)
(2.47364 0 0)
(2.48144 0 0)
(2.48923 0 0)
(2.49702 0 0)
(2.50481 0 0)
(2.51259 0 0)
(2.52037 0 0)
(2.52815 0 0)
(2.53593 0 0)
(2.5437 0 0)
(2.55147 0 0)
(2.55923 0 0)
(2.56699 0 0)
(2.57474 0 0)
(2.58248 0 0)
(2.59022 0 0)
(2.59795 0 0)
(2.60568 0 0)
(2.6134 0 0)
(2.6211 0 0)
(2.6288 0 0)
(2.6365 0 0)
(2.64418 0 0)
(2.65185 0 0)
(2.65951 0 0)
(2.66715 0 0)
(2.67479 0 0)
(2.68241 0 0)
(2.69002 0 0)
(2.69762 0 0)
(2.7052 0 0)
(2.71277 0 0)
(2.72031 0 0)
(2.72785 0 0)
(2.73536 0 0)
(2.74286 0 0)
(2.75033 0 0)
(2.75779 0 0)
(2.76522 0 0)
(2.77264 0 0)
(2.78003 0 0)
(2.78739 0 0)
(2.79473 0 0)
(2.80204 0 0)
(2.80933 0 0)
(2.81659 0 0)
(2.82381 0 0)
(2.83101 0 0)
(2.83818 0 0)
(2.84531 0 0)
(2.8524 0 0)
(2.85946 0 0)
(2.86648 0 0)
(2.87346 0 0)
(2.8804 0 0)
(2.8873 0 0)
(2.89415 0 0)
(2.90095 0 0)
(2.90771 0 0)
(2.91442 0 0)
(2.92107 0 0)
(2.92767 0 0)
(2.93422 0 0)
(2.9407 0 0)
(2.94713 0 0)
(2.95349 0 0)
(2.95979 0 0)
(2.96601 0 0)
(2.97217 0 0)
(2.97826 0 0)
(2.98426 0 0)
(2.99019 0 0)
(2.99604 0 0)
(3.0018 0 0)
(3.00747 0 0)
(3.01305 0 0)
(3.01854 0 0)
(3.02392 0 0)
(3.02921 0 0)
(3.03439 0 0)
(3.03945 0 0)
(3.04441 0 0)
(3.04924 0 0)
(3.05395 0 0)
(3.05853 0 0)
(3.06298 0 0)
(3.0673 0 0)
(3.07147 0 0)
(3.0755 0 0)
(3.07937 0 0)
(3.08309 0 0)
(3.08664 0 0)
(3.09002 0 0)
(3.09323 0 0)
(3.09625 0 0)
(3.09909 0 0)
(3.10174 0 0)
(3.10418 0 0)
(3.10642 0 0)
(3.10844 0 0)
(3.11024 0 0)
(3.11181 0 0)
(3.11314 0 0)
(3.11423 0 0)
(3.11507 0 0)
(3.11564 0 0)
(3.11595 0 0)
(3.11598 0 0)
(3.11572 0 0)
(3.11516 0 0)
(3.1143 0 0)
(3.11312 0 0)
(3.11163 0 0)
(3.10979 0 0)
(3.10762 0 0)
(3.10509 0 0)
(3.1022 0 0)
(3.09894 0 0)
(3.09529 0 0)
(3.09125 0 0)
(3.0868 0 0)
(3.08194 0 0)
(3.07665 0 0)
(3.07093 0 0)
(3.06476 0 0)
(3.05814 0 0)
(3.05104 0 0)
(3.04347 0 0)
(3.03541 0 0)
(3.02685 0 0)
(3.01779 0 0)
(3.0082 0 0)
(2.99809 0 0)
(2.98744 0 0)
(2.97625 0 0)
(2.9645 0 0)
(2.95219 0 0)
(2.93931 0 0)
(2.92585 0 0)
(2.91181 0 0)
(2.89718 0 0)
(2.88195 0 0)
(2.86613 0 0)
(2.8497 0 0)
(2.83266 0 0)
(2.81502 0 0)
(2.79676 0 0)
(2.77789 0 0)
(2.75842 0 0)
(2.73833 0 0)
(2.71764 0 0)
(2.69635 0 0)
(2.67446 0 0)
(2.65197 0 0)
(2.6289 0 0)
(2.60526 0 0)
(2.58105 0 0)
(2.55629 0 0)
(2.53098 0 0)
(2.50515 0 0)
(2.4788 0 0)
(2.45195 0 0)
(2.42462 0 0)
(2.39683 0 0)
(2.3686 0 0)
(2.33994 0 0)
(2.31089 0 0)
(2.28146 0 0)
(2.25168 0 0)
(2.22157 0 0)
(2.19116 0 0)
(2.16048 0 0)
(2.12955 0 0)
(2.09841 0 0)
(2.06707 0 0)
(2.03558 0 0)
(2.00396 0 0)
(1.97224 0 0)
(1.94045 0 0)
(1.90862 0 0)
(1.87678 0 0)
(1.84497 0 0)
(1.81321 0 0)
(1.78153 0 0)
(1.74996 0 0)
(1.71853 0 0)
(1.68726 0 0)
(1.6562 0 0)
(1.62535 0 0)
(1.59475 0 0)
(1.56443 0 0)
(1.5344 0 0)
(1.50469 0 0)
(1.47533 0 0)
(1.44632 0 0)
(1.4177 0 0)
(1.38948 0 0)
(1.36167 0 0)
(1.3343 0 0)
(1.30737 0 0)
(1.28091 0 0)
(1.25492 0 0)
(1.22941 0 0)
(1.20439 0 0)
(1.17988 0 0)
(1.15587 0 0)
(1.13238 0 0)
(1.10941 0 0)
(1.08696 0 0)
(1.06503 0 0)
(1.04364 0 0)
(1.02277 0 0)
(1.00243 0 0)
(0.982609 0 0)
(0.963317 0 0)
(0.944545 0 0)
(0.926291 0 0)
(0.908549 0 0)
(0.891315 0 0)
(0.874583 0 0)
(0.858347 0 0)
(0.8426 0 0)
(0.827335 0 0)
(0.812544 0 0)
(0.798219 0 0)
(0.784352 0 0)
(0.770935 0 0)
(0.757957 0 0)
(0.745411 0 0)
(0.733287 0 0)
(0.721575 0 0)
(0.710267 0 0)
(0.699351 0 0)
(0.688819 0 0)
(0.67866 0 0)
(0.668866 0 0)
(0.659425 0 0)
(0.65033 0 0)
(0.641568 0 0)
(0.633132 0 0)
(0.625012 0 0)
(0.617198 0 0)
(0.609681 0 0)
(0.602452 0 0)
(0.595501 0 0)
(0.58882 0 0)
(0.5824 0 0)
(0.576233 0 0)
(0.57031 0 0)
(0.564623 0 0)
(0.559164 0 0)
(0.553924 0 0)
(0.548897 0 0)
(0.544075 0 0)
(0.539451 0 0)
(0.535017 0 0)
(0.530766 0 0)
(0.526692 0 0)
(0.522788 0 0)
(0.519049 0 0)
(0.515467 0 0)
(0.512036 0 0)
(0.508752 0 0)
(0.505608 0 0)
(0.502599 0 0)
(0.49972 0 0)
(0.496965 0 0)
(0.494329 0 0)
(0.491809 0 0)
(0.489399 0 0)
(0.487095 0 0)
(0.484892 0 0)
(0.482786 0 0)
(0.480775 0 0)
(0.478852 0 0)
(0.477016 0 0)
(0.475262 0 0)
(0.473587 0 0)
(0.471987 0 0)
(0.47046 0 0)
(0.469002 0 0)
(0.46761 0 0)
(0.466282 0 0)
(0.465015 0 0)
(0.463806 0 0)
(0.462653 0 0)
(0.461553 0 0)
(0.460505 0 0)
(0.459504 0 0)
(0.458551 0 0)
(0.457642 0 0)
(0.456775 0 0)
(0.455949 0 0)
(0.455163 0 0)
(0.454413 0 0)
(0.453699 0 0)
(0.453018 0 0)
(0.45237 0 0)
(0.451753 0 0)
(0.451166 0 0)
(0.450606 0 0)
(0.450074 0 0)
(0.449567 0 0)
(0.449085 0 0)
(0.448625 0 0)
(0.448189 0 0)
(0.447773 0 0)
(0.447378 0 0)
(0.447002 0 0)
(0.446644 0 0)
(0.446304 0 0)
(0.445981 0 0)
(0.445674 0 0)
(0.445382 0 0)
(0.445104 0 0)
(0.44484 0 0)
(0.444589 0 0)
(0.444351 0 0)
(0.444124 0 0)
)
;

boundaryField
{
    topWall
    {
        type            empty;
    }
    bottomWall
    {
        type            empty;
    }
    leftAndRight_half1
    {
        type            cyclic;
    }
    leftAndRight_half0
    {
        type            cyclic;
    }
    frontAndBack
    {
        type            empty;
    }
}


// ************************************************************************* //
