/*--------------------------------*- C++ -*----------------------------------*\
  =========                 |
  \\      /  F ield         | OpenFOAM: The Open Source CFD Toolbox
   \\    /   O peration     | Website:  https://openfoam.org
    \\  /    A nd           | Version:  9
     \\/     M anipulation  |
\*---------------------------------------------------------------------------*/
FoamFile
{
    format      ascii;
    class       volVectorField;
    location    "1.3";
    object      U;
}
// * * * * * * * * * * * * * * * * * * * * * * * * * * * * * * * * * * * * * //

dimensions      [0 1 -1 0 0 0 0];

internalField   nonuniform List<vector> 
1000
(
(0.131745 0 0)
(0.131729 0 0)
(0.131746 0 0)
(0.131727 0 0)
(0.131747 0 0)
(0.131725 0 0)
(0.131748 0 0)
(0.131723 0 0)
(0.131749 0 0)
(0.131721 0 0)
(0.13175 0 0)
(0.131718 0 0)
(0.131752 0 0)
(0.131715 0 0)
(0.131753 0 0)
(0.131711 0 0)
(0.131755 0 0)
(0.131708 0 0)
(0.131757 0 0)
(0.131704 0 0)
(0.131758 0 0)
(0.131699 0 0)
(0.13176 0 0)
(0.131694 0 0)
(0.131761 0 0)
(0.131689 0 0)
(0.131763 0 0)
(0.131683 0 0)
(0.131764 0 0)
(0.131676 0 0)
(0.131765 0 0)
(0.131669 0 0)
(0.131766 0 0)
(0.131662 0 0)
(0.131766 0 0)
(0.131654 0 0)
(0.131766 0 0)
(0.131646 0 0)
(0.131766 0 0)
(0.131637 0 0)
(0.131765 0 0)
(0.131628 0 0)
(0.131764 0 0)
(0.131618 0 0)
(0.131762 0 0)
(0.131608 0 0)
(0.131759 0 0)
(0.131598 0 0)
(0.131756 0 0)
(0.131588 0 0)
(0.131752 0 0)
(0.131577 0 0)
(0.131747 0 0)
(0.131567 0 0)
(0.131742 0 0)
(0.131556 0 0)
(0.131736 0 0)
(0.131546 0 0)
(0.131729 0 0)
(0.131536 0 0)
(0.131722 0 0)
(0.131526 0 0)
(0.131714 0 0)
(0.131517 0 0)
(0.131707 0 0)
(0.131509 0 0)
(0.131699 0 0)
(0.131502 0 0)
(0.131691 0 0)
(0.131497 0 0)
(0.131683 0 0)
(0.131493 0 0)
(0.131677 0 0)
(0.13149 0 0)
(0.131671 0 0)
(0.13149 0 0)
(0.131666 0 0)
(0.131492 0 0)
(0.131663 0 0)
(0.131497 0 0)
(0.131661 0 0)
(0.131504 0 0)
(0.131663 0 0)
(0.131514 0 0)
(0.131668 0 0)
(0.131524 0 0)
(0.131681 0 0)
(0.131532 0 0)
(0.131707 0 0)
(0.131531 0 0)
(0.131755 0 0)
(0.131517 0 0)
(0.131829 0 0)
(0.131499 0 0)
(0.131914 0 0)
(0.131516 0 0)
(0.131979 0 0)
(0.131619 0 0)
(0.132013 0 0)
(0.131799 0 0)
(0.132074 0 0)
(0.131985 0 0)
(0.132187 0 0)
(0.132146 0 0)
(0.132316 0 0)
(0.132284 0 0)
(0.132431 0 0)
(0.132398 0 0)
(0.132525 0 0)
(0.132492 0 0)
(0.1326 0 0)
(0.132571 0 0)
(0.132663 0 0)
(0.132641 0 0)
(0.132721 0 0)
(0.132708 0 0)
(0.13278 0 0)
(0.132775 0 0)
(0.13284 0 0)
(0.132844 0 0)
(0.132904 0 0)
(0.132916 0 0)
(0.13297 0 0)
(0.132991 0 0)
(0.13304 0 0)
(0.133068 0 0)
(0.133113 0 0)
(0.133146 0 0)
(0.133188 0 0)
(0.133226 0 0)
(0.133266 0 0)
(0.133308 0 0)
(0.133344 0 0)
(0.133389 0 0)
(0.133424 0 0)
(0.133472 0 0)
(0.133504 0 0)
(0.133554 0 0)
(0.133584 0 0)
(0.133636 0 0)
(0.133664 0 0)
(0.133717 0 0)
(0.133744 0 0)
(0.133796 0 0)
(0.133822 0 0)
(0.133874 0 0)
(0.133899 0 0)
(0.133951 0 0)
(0.133974 0 0)
(0.134025 0 0)
(0.134047 0 0)
(0.134096 0 0)
(0.134118 0 0)
(0.134166 0 0)
(0.134186 0 0)
(0.134232 0 0)
(0.134251 0 0)
(0.134296 0 0)
(0.134314 0 0)
(0.134356 0 0)
(0.134373 0 0)
(0.134414 0 0)
(0.13443 0 0)
(0.134468 0 0)
(0.134483 0 0)
(0.134519 0 0)
(0.134532 0 0)
(0.134566 0 0)
(0.134578 0 0)
(0.13461 0 0)
(0.134621 0 0)
(0.13465 0 0)
(0.13466 0 0)
(0.134687 0 0)
(0.134696 0 0)
(0.13472 0 0)
(0.134727 0 0)
(0.134749 0 0)
(0.134755 0 0)
(0.134774 0 0)
(0.134779 0 0)
(0.134796 0 0)
(0.134798 0 0)
(0.134813 0 0)
(0.134814 0 0)
(0.134827 0 0)
(0.134824 0 0)
(0.134836 0 0)
(0.13483 0 0)
(0.134842 0 0)
(0.134831 0 0)
(0.134842 0 0)
(0.134828 0 0)
(0.134837 0 0)
(0.134822 0 0)
(0.134826 0 0)
(0.134812 0 0)
(0.134812 0 0)
(0.134801 0 0)
(0.1348 0 0)
(0.134791 0 0)
(0.13479 0 0)
(0.134777 0 0)
(0.134759 0 0)
(0.134711 0 0)
(0.134644 0 0)
(0.134544 0 0)
(0.134438 0 0)
(0.134325 0 0)
(0.13423 0 0)
(0.134145 0 0)
(0.134083 0 0)
(0.13403 0 0)
(0.133991 0 0)
(0.133956 0 0)
(0.133928 0 0)
(0.133899 0 0)
(0.133874 0 0)
(0.133846 0 0)
(0.13382 0 0)
(0.133791 0 0)
(0.133763 0 0)
(0.133733 0 0)
(0.133703 0 0)
(0.133671 0 0)
(0.133639 0 0)
(0.133606 0 0)
(0.133572 0 0)
(0.133537 0 0)
(0.133502 0 0)
(0.133466 0 0)
(0.13343 0 0)
(0.133393 0 0)
(0.133356 0 0)
(0.133318 0 0)
(0.13328 0 0)
(0.133242 0 0)
(0.133203 0 0)
(0.133164 0 0)
(0.133125 0 0)
(0.133087 0 0)
(0.133048 0 0)
(0.133009 0 0)
(0.13297 0 0)
(0.132932 0 0)
(0.132893 0 0)
(0.132855 0 0)
(0.132817 0 0)
(0.13278 0 0)
(0.132743 0 0)
(0.132707 0 0)
(0.13267 0 0)
(0.132635 0 0)
(0.1326 0 0)
(0.132566 0 0)
(0.132532 0 0)
(0.132499 0 0)
(0.132467 0 0)
(0.132436 0 0)
(0.132405 0 0)
(0.132375 0 0)
(0.132345 0 0)
(0.132317 0 0)
(0.132289 0 0)
(0.132263 0 0)
(0.132237 0 0)
(0.132212 0 0)
(0.132187 0 0)
(0.132164 0 0)
(0.132141 0 0)
(0.13212 0 0)
(0.132098 0 0)
(0.132078 0 0)
(0.132059 0 0)
(0.132041 0 0)
(0.132023 0 0)
(0.132006 0 0)
(0.13199 0 0)
(0.131974 0 0)
(0.131959 0 0)
(0.131945 0 0)
(0.131932 0 0)
(0.131919 0 0)
(0.131907 0 0)
(0.131896 0 0)
(0.131885 0 0)
(0.131875 0 0)
(0.131866 0 0)
(0.131857 0 0)
(0.131848 0 0)
(0.13184 0 0)
(0.131832 0 0)
(0.131825 0 0)
(0.131819 0 0)
(0.131813 0 0)
(0.131807 0 0)
(0.131801 0 0)
(0.131796 0 0)
(0.131792 0 0)
(0.131787 0 0)
(0.131783 0 0)
(0.131779 0 0)
(0.131776 0 0)
(0.131773 0 0)
(0.13177 0 0)
(0.131767 0 0)
(0.131764 0 0)
(0.131762 0 0)
(0.13176 0 0)
(0.131758 0 0)
(0.131756 0 0)
(0.131754 0 0)
(0.131753 0 0)
(0.131751 0 0)
(0.13175 0 0)
(0.131749 0 0)
(0.131748 0 0)
(0.131747 0 0)
(0.131746 0 0)
(0.131745 0 0)
(0.131744 0 0)
(0.131744 0 0)
(0.131743 0 0)
(0.131743 0 0)
(0.131742 0 0)
(0.131742 0 0)
(0.131741 0 0)
(0.131741 0 0)
(0.131741 0 0)
(0.13174 0 0)
(0.13174 0 0)
(0.13174 0 0)
(0.13174 0 0)
(0.131739 0 0)
(0.131739 0 0)
(0.131739 0 0)
(0.131739 0 0)
(0.131739 0 0)
(0.131739 0 0)
(0.131739 0 0)
(0.131739 0 0)
(0.131739 0 0)
(0.131738 0 0)
(0.131738 0 0)
(0.131738 0 0)
(0.131738 0 0)
(0.131738 0 0)
(0.131738 0 0)
(0.131738 0 0)
(0.131738 0 0)
(0.131738 0 0)
(0.131738 0 0)
(0.131738 0 0)
(0.131738 0 0)
(0.131738 0 0)
(0.131738 0 0)
(0.131738 0 0)
(0.131738 0 0)
(0.131738 0 0)
(0.131738 0 0)
(0.131738 0 0)
(0.131738 0 0)
(0.131738 0 0)
(0.131738 0 0)
(0.131738 0 0)
(0.131738 0 0)
(0.131738 0 0)
(0.131738 0 0)
(0.131738 0 0)
(0.131738 0 0)
(0.131738 0 0)
(0.131738 0 0)
(0.131738 0 0)
(0.131738 0 0)
(0.131738 0 0)
(0.131738 0 0)
(0.131738 0 0)
(0.131738 0 0)
(0.131738 0 0)
(0.131738 0 0)
(0.131738 0 0)
(0.131738 0 0)
(0.131738 0 0)
(0.131738 0 0)
(0.131738 0 0)
(0.131738 0 0)
(0.131738 0 0)
(0.131738 0 0)
(0.131738 0 0)
(0.131738 0 0)
(0.131738 0 0)
(0.131738 0 0)
(0.131738 0 0)
(0.131738 0 0)
(0.131738 0 0)
(0.131738 0 0)
(0.131738 0 0)
(0.131738 0 0)
(0.131738 0 0)
(0.131738 0 0)
(0.131738 0 0)
(0.131738 0 0)
(0.131738 0 0)
(0.131738 0 0)
(0.131738 0 0)
(0.131738 0 0)
(0.131738 0 0)
(0.131738 0 0)
(0.131738 0 0)
(0.131738 0 0)
(0.131738 0 0)
(0.131738 0 0)
(0.131738 0 0)
(0.131738 0 0)
(0.131738 0 0)
(0.131738 0 0)
(0.131738 0 0)
(0.131738 0 0)
(0.131738 0 0)
(0.131738 0 0)
(0.131738 0 0)
(0.131738 0 0)
(0.131738 0 0)
(0.131738 0 0)
(0.131738 0 0)
(0.131738 0 0)
(0.131738 0 0)
(0.131738 0 0)
(0.131738 0 0)
(0.131738 0 0)
(0.131738 0 0)
(0.131738 0 0)
(0.131738 0 0)
(0.131738 0 0)
(0.131738 0 0)
(0.131738 0 0)
(0.131738 0 0)
(0.131738 0 0)
(0.131738 0 0)
(0.131738 0 0)
(0.131738 0 0)
(0.131738 0 0)
(0.131738 0 0)
(0.131738 0 0)
(0.131738 0 0)
(0.131738 0 0)
(0.131738 0 0)
(0.131738 0 0)
(0.131738 0 0)
(0.131738 0 0)
(0.131738 0 0)
(0.131738 0 0)
(0.131738 0 0)
(0.131738 0 0)
(0.131738 0 0)
(0.131738 0 0)
(0.131738 0 0)
(0.131738 0 0)
(0.131738 0 0)
(0.131738 0 0)
(0.131738 0 0)
(0.131738 0 0)
(0.131738 0 0)
(0.131738 0 0)
(0.131738 0 0)
(0.131738 0 0)
(0.131738 0 0)
(0.131738 0 0)
(0.131738 0 0)
(0.131738 0 0)
(0.131738 0 0)
(0.131738 0 0)
(0.131738 0 0)
(0.131738 0 0)
(0.131738 0 0)
(0.131738 0 0)
(0.131738 0 0)
(0.131738 0 0)
(0.131738 0 0)
(0.131738 0 0)
(0.131738 0 0)
(0.131738 0 0)
(0.131738 0 0)
(0.131738 0 0)
(0.131738 0 0)
(0.131738 0 0)
(0.131738 0 0)
(0.131738 0 0)
(0.131738 0 0)
(0.131738 0 0)
(0.131738 0 0)
(0.131738 0 0)
(0.131738 0 0)
(0.131738 0 0)
(0.131738 0 0)
(0.131738 0 0)
(0.131738 0 0)
(0.131738 0 0)
(0.131738 0 0)
(0.131738 0 0)
(0.131738 0 0)
(0.131738 0 0)
(0.131738 0 0)
(0.131738 0 0)
(0.131738 0 0)
(0.131738 0 0)
(0.131738 0 0)
(0.131738 0 0)
(0.131738 0 0)
(0.131738 0 0)
(0.131738 0 0)
(0.131738 0 0)
(0.131738 0 0)
(0.131738 0 0)
(0.131738 0 0)
(0.131738 0 0)
(0.131738 0 0)
(0.131738 0 0)
(0.131738 0 0)
(0.131738 0 0)
(0.131738 0 0)
(0.131738 0 0)
(0.131738 0 0)
(0.131738 0 0)
(0.131738 0 0)
(0.131738 0 0)
(0.131738 0 0)
(0.131738 0 0)
(0.131738 0 0)
(0.131738 0 0)
(0.131738 0 0)
(0.131738 0 0)
(0.131738 0 0)
(0.131738 0 0)
(0.131738 0 0)
(0.131738 0 0)
(0.131738 0 0)
(0.131738 0 0)
(0.131738 0 0)
(0.131738 0 0)
(0.131738 0 0)
(0.131738 0 0)
(0.131738 0 0)
(0.131738 0 0)
(0.131738 0 0)
(0.131738 0 0)
(0.131738 0 0)
(0.131738 0 0)
(0.131738 0 0)
(0.131738 0 0)
(0.131738 0 0)
(0.131738 0 0)
(0.131738 0 0)
(0.131738 0 0)
(0.131738 0 0)
(0.131738 0 0)
(0.131738 0 0)
(0.131738 0 0)
(0.131738 0 0)
(0.131738 0 0)
(0.131738 0 0)
(0.131738 0 0)
(0.131738 0 0)
(0.131738 0 0)
(0.131738 0 0)
(0.131738 0 0)
(0.131738 0 0)
(0.131738 0 0)
(0.131738 0 0)
(0.131738 0 0)
(0.131738 0 0)
(0.131738 0 0)
(0.131738 0 0)
(0.131738 0 0)
(0.131738 0 0)
(0.131738 0 0)
(0.131738 0 0)
(0.131738 0 0)
(0.131738 0 0)
(0.131738 0 0)
(0.131738 0 0)
(0.131738 0 0)
(0.131738 0 0)
(0.131738 0 0)
(0.131738 0 0)
(0.131738 0 0)
(0.131738 0 0)
(0.131738 0 0)
(0.131738 0 0)
(0.131738 0 0)
(0.131738 0 0)
(0.131738 0 0)
(0.131738 0 0)
(0.131738 0 0)
(0.131738 0 0)
(0.131738 0 0)
(0.131738 0 0)
(0.131738 0 0)
(0.131738 0 0)
(0.131738 0 0)
(0.131738 0 0)
(0.131738 0 0)
(0.131738 0 0)
(0.131738 0 0)
(0.131738 0 0)
(0.131738 0 0)
(0.131738 0 0)
(0.131738 0 0)
(0.131738 0 0)
(0.131738 0 0)
(0.131738 0 0)
(0.131738 0 0)
(0.131738 0 0)
(0.131738 0 0)
(0.131738 0 0)
(0.131738 0 0)
(0.131738 0 0)
(0.131738 0 0)
(0.131738 0 0)
(0.131738 0 0)
(0.131738 0 0)
(0.131738 0 0)
(0.131738 0 0)
(0.131738 0 0)
(0.131738 0 0)
(0.131738 0 0)
(0.131738 0 0)
(0.131738 0 0)
(0.131738 0 0)
(0.131738 0 0)
(0.131738 0 0)
(0.131738 0 0)
(0.131738 0 0)
(0.131738 0 0)
(0.131738 0 0)
(0.131738 0 0)
(0.131738 0 0)
(0.131738 0 0)
(0.131738 0 0)
(0.131738 0 0)
(0.131738 0 0)
(0.131738 0 0)
(0.131738 0 0)
(0.131738 0 0)
(0.131738 0 0)
(0.131738 0 0)
(0.131738 0 0)
(0.131738 0 0)
(0.131738 0 0)
(0.131738 0 0)
(0.131738 0 0)
(0.131738 0 0)
(0.131738 0 0)
(0.131738 0 0)
(0.131738 0 0)
(0.131738 0 0)
(0.131738 0 0)
(0.131738 0 0)
(0.131738 0 0)
(0.131738 0 0)
(0.131738 0 0)
(0.131738 0 0)
(0.131738 0 0)
(0.131738 0 0)
(0.131738 0 0)
(0.131738 0 0)
(0.131738 0 0)
(0.131738 0 0)
(0.131738 0 0)
(0.131738 0 0)
(0.131738 0 0)
(0.131738 0 0)
(0.131738 0 0)
(0.131738 0 0)
(0.131738 0 0)
(0.131738 0 0)
(0.131738 0 0)
(0.131738 0 0)
(0.131738 0 0)
(0.131738 0 0)
(0.131738 0 0)
(0.131738 0 0)
(0.131738 0 0)
(0.131738 0 0)
(0.131738 0 0)
(0.131738 0 0)
(0.131738 0 0)
(0.131738 0 0)
(0.131738 0 0)
(0.131738 0 0)
(0.131738 0 0)
(0.131738 0 0)
(0.131738 0 0)
(0.131738 0 0)
(0.131738 0 0)
(0.131738 0 0)
(0.131738 0 0)
(0.131738 0 0)
(0.131738 0 0)
(0.131738 0 0)
(0.131738 0 0)
(0.131738 0 0)
(0.131738 0 0)
(0.131738 0 0)
(0.131738 0 0)
(0.131738 0 0)
(0.131738 0 0)
(0.131738 0 0)
(0.131738 0 0)
(0.131738 0 0)
(0.131738 0 0)
(0.131738 0 0)
(0.131738 0 0)
(0.131738 0 0)
(0.131738 0 0)
(0.131738 0 0)
(0.131738 0 0)
(0.131738 0 0)
(0.131738 0 0)
(0.131738 0 0)
(0.131738 0 0)
(0.131738 0 0)
(0.131738 0 0)
(0.131738 0 0)
(0.131738 0 0)
(0.131738 0 0)
(0.131738 0 0)
(0.131738 0 0)
(0.131738 0 0)
(0.131738 0 0)
(0.131738 0 0)
(0.131738 0 0)
(0.131738 0 0)
(0.131738 0 0)
(0.131738 0 0)
(0.131738 0 0)
(0.131738 0 0)
(0.131738 0 0)
(0.131738 0 0)
(0.131738 0 0)
(0.131738 0 0)
(0.131738 0 0)
(0.131738 0 0)
(0.131738 0 0)
(0.131738 0 0)
(0.131738 0 0)
(0.131738 0 0)
(0.131738 0 0)
(0.131738 0 0)
(0.131738 0 0)
(0.131738 0 0)
(0.131738 0 0)
(0.131738 0 0)
(0.131738 0 0)
(0.131738 0 0)
(0.131738 0 0)
(0.131738 0 0)
(0.131738 0 0)
(0.131738 0 0)
(0.131738 0 0)
(0.131738 0 0)
(0.131738 0 0)
(0.131738 0 0)
(0.131738 0 0)
(0.131738 0 0)
(0.131738 0 0)
(0.131738 0 0)
(0.131738 0 0)
(0.131738 0 0)
(0.131738 0 0)
(0.131738 0 0)
(0.131738 0 0)
(0.131738 0 0)
(0.131738 0 0)
(0.131738 0 0)
(0.131738 0 0)
(0.131738 0 0)
(0.131738 0 0)
(0.131738 0 0)
(0.131738 0 0)
(0.131738 0 0)
(0.131738 0 0)
(0.131738 0 0)
(0.131738 0 0)
(0.131738 0 0)
(0.131738 0 0)
(0.131738 0 0)
(0.131738 0 0)
(0.131738 0 0)
(0.131738 0 0)
(0.131738 0 0)
(0.131738 0 0)
(0.131738 0 0)
(0.131738 0 0)
(0.131738 0 0)
(0.131738 0 0)
(0.131738 0 0)
(0.131738 0 0)
(0.131738 0 0)
(0.131738 0 0)
(0.131738 0 0)
(0.131738 0 0)
(0.131738 0 0)
(0.131738 0 0)
(0.131738 0 0)
(0.131738 0 0)
(0.131738 0 0)
(0.131738 0 0)
(0.131738 0 0)
(0.131738 0 0)
(0.131738 0 0)
(0.131738 0 0)
(0.131738 0 0)
(0.131738 0 0)
(0.131738 0 0)
(0.131738 0 0)
(0.131738 0 0)
(0.131738 0 0)
(0.131738 0 0)
(0.131738 0 0)
(0.131738 0 0)
(0.131738 0 0)
(0.131738 0 0)
(0.131738 0 0)
(0.131738 0 0)
(0.131738 0 0)
(0.131738 0 0)
(0.131738 0 0)
(0.131738 0 0)
(0.131738 0 0)
(0.131738 0 0)
(0.131738 0 0)
(0.131738 0 0)
(0.131738 0 0)
(0.131738 0 0)
(0.131738 0 0)
(0.131738 0 0)
(0.131738 0 0)
(0.131738 0 0)
(0.131738 0 0)
(0.131738 0 0)
(0.131738 0 0)
(0.131738 0 0)
(0.131738 0 0)
(0.131738 0 0)
(0.131738 0 0)
(0.131738 0 0)
(0.131738 0 0)
(0.131738 0 0)
(0.131738 0 0)
(0.131738 0 0)
(0.131738 0 0)
(0.131738 0 0)
(0.131738 0 0)
(0.131738 0 0)
(0.131738 0 0)
(0.131738 0 0)
(0.131738 0 0)
(0.131738 0 0)
(0.131738 0 0)
(0.131738 0 0)
(0.131738 0 0)
(0.131738 0 0)
(0.131738 0 0)
(0.131738 0 0)
(0.131738 0 0)
(0.131738 0 0)
(0.131738 0 0)
(0.131738 0 0)
(0.131738 0 0)
(0.131738 0 0)
(0.131738 0 0)
(0.131738 0 0)
(0.131738 0 0)
(0.131738 0 0)
(0.131738 0 0)
(0.131738 0 0)
(0.131738 0 0)
(0.131738 0 0)
(0.131738 0 0)
(0.131738 0 0)
(0.131738 0 0)
(0.131738 0 0)
(0.131738 0 0)
(0.131738 0 0)
(0.131738 0 0)
(0.131738 0 0)
(0.131738 0 0)
(0.131738 0 0)
(0.131738 0 0)
(0.131738 0 0)
(0.131738 0 0)
(0.131738 0 0)
(0.131738 0 0)
(0.131738 0 0)
(0.131738 0 0)
(0.131738 0 0)
(0.131738 0 0)
(0.131738 0 0)
(0.131738 0 0)
(0.131738 0 0)
(0.131738 0 0)
(0.131738 0 0)
(0.131738 0 0)
(0.131738 0 0)
(0.131738 0 0)
(0.131738 0 0)
(0.131738 0 0)
(0.131738 0 0)
(0.131738 0 0)
(0.131738 0 0)
(0.131738 0 0)
(0.131738 0 0)
(0.131738 0 0)
(0.131738 0 0)
(0.131738 0 0)
(0.131738 0 0)
(0.131738 0 0)
(0.131738 0 0)
(0.131738 0 0)
(0.131738 0 0)
(0.131738 0 0)
(0.131738 0 0)
(0.131738 0 0)
(0.131738 0 0)
(0.131738 0 0)
(0.131738 0 0)
(0.131738 0 0)
(0.131738 0 0)
(0.131738 0 0)
(0.131738 0 0)
(0.131738 0 0)
(0.131738 0 0)
(0.131738 0 0)
(0.131738 0 0)
(0.131738 0 0)
(0.131738 0 0)
(0.131738 0 0)
(0.131738 0 0)
(0.131738 0 0)
(0.131738 0 0)
(0.131738 0 0)
(0.131738 0 0)
(0.131738 0 0)
(0.131738 0 0)
(0.131738 0 0)
(0.131738 0 0)
(0.131738 0 0)
(0.131738 0 0)
(0.131738 0 0)
(0.131738 0 0)
(0.131738 0 0)
(0.131738 0 0)
(0.131738 0 0)
(0.131738 0 0)
(0.131738 0 0)
(0.131738 0 0)
(0.131738 0 0)
(0.131738 0 0)
(0.131738 0 0)
(0.131738 0 0)
(0.131738 0 0)
(0.131738 0 0)
(0.131738 0 0)
(0.131738 0 0)
(0.131738 0 0)
(0.131738 0 0)
(0.131738 0 0)
(0.131738 0 0)
(0.131738 0 0)
(0.131738 0 0)
(0.131737 0 0)
(0.131739 0 0)
(0.131737 0 0)
(0.131739 0 0)
(0.131737 0 0)
(0.131739 0 0)
(0.131737 0 0)
(0.131739 0 0)
(0.131737 0 0)
(0.131739 0 0)
(0.131736 0 0)
(0.131739 0 0)
(0.131736 0 0)
(0.13174 0 0)
(0.131736 0 0)
(0.13174 0 0)
(0.131735 0 0)
(0.131741 0 0)
(0.131735 0 0)
(0.131741 0 0)
(0.131734 0 0)
(0.131742 0 0)
(0.131733 0 0)
(0.131742 0 0)
(0.131732 0 0)
(0.131743 0 0)
(0.131731 0 0)
(0.131744 0 0)
(0.13173 0 0)
)
;

boundaryField
{
    topWall
    {
        type            empty;
    }
    bottomWall
    {
        type            empty;
    }
    leftAndRight_half1
    {
        type            cyclic;
    }
    leftAndRight_half0
    {
        type            cyclic;
    }
    frontAndBack
    {
        type            empty;
    }
}


// ************************************************************************* //
