/*--------------------------------*- C++ -*----------------------------------*\
  =========                 |
  \\      /  F ield         | OpenFOAM: The Open Source CFD Toolbox
   \\    /   O peration     | Website:  https://openfoam.org
    \\  /    A nd           | Version:  9
     \\/     M anipulation  |
\*---------------------------------------------------------------------------*/
FoamFile
{
    format      ascii;
    class       volVectorField;
    location    "4.65";
    object      U;
}
// * * * * * * * * * * * * * * * * * * * * * * * * * * * * * * * * * * * * * //

dimensions      [0 1 -1 0 0 0 0];

internalField   nonuniform List<vector> 
1000
(
(0.13177 0 0)
(0.131694 0 0)
(0.13177 0 0)
(0.131694 0 0)
(0.131771 0 0)
(0.131693 0 0)
(0.131771 0 0)
(0.131692 0 0)
(0.131772 0 0)
(0.131692 0 0)
(0.131772 0 0)
(0.131691 0 0)
(0.131773 0 0)
(0.131691 0 0)
(0.131773 0 0)
(0.131691 0 0)
(0.131774 0 0)
(0.131691 0 0)
(0.131774 0 0)
(0.131691 0 0)
(0.131775 0 0)
(0.131691 0 0)
(0.131776 0 0)
(0.131692 0 0)
(0.131776 0 0)
(0.131692 0 0)
(0.131777 0 0)
(0.131693 0 0)
(0.131778 0 0)
(0.131694 0 0)
(0.131779 0 0)
(0.131696 0 0)
(0.13178 0 0)
(0.131697 0 0)
(0.131782 0 0)
(0.131699 0 0)
(0.131783 0 0)
(0.131701 0 0)
(0.131785 0 0)
(0.131704 0 0)
(0.131787 0 0)
(0.131707 0 0)
(0.13179 0 0)
(0.13171 0 0)
(0.131792 0 0)
(0.131714 0 0)
(0.131795 0 0)
(0.131718 0 0)
(0.131798 0 0)
(0.131723 0 0)
(0.131802 0 0)
(0.131728 0 0)
(0.131806 0 0)
(0.131734 0 0)
(0.131811 0 0)
(0.13174 0 0)
(0.131816 0 0)
(0.131747 0 0)
(0.131821 0 0)
(0.131755 0 0)
(0.131827 0 0)
(0.131763 0 0)
(0.131834 0 0)
(0.131772 0 0)
(0.131842 0 0)
(0.131782 0 0)
(0.13185 0 0)
(0.131792 0 0)
(0.131859 0 0)
(0.131804 0 0)
(0.131869 0 0)
(0.131816 0 0)
(0.131879 0 0)
(0.131829 0 0)
(0.131891 0 0)
(0.131844 0 0)
(0.131904 0 0)
(0.131859 0 0)
(0.131917 0 0)
(0.131875 0 0)
(0.131932 0 0)
(0.131892 0 0)
(0.131949 0 0)
(0.13191 0 0)
(0.131968 0 0)
(0.131926 0 0)
(0.131993 0 0)
(0.131937 0 0)
(0.132028 0 0)
(0.131937 0 0)
(0.132083 0 0)
(0.131921 0 0)
(0.132161 0 0)
(0.131897 0 0)
(0.132249 0 0)
(0.131906 0 0)
(0.132311 0 0)
(0.131996 0 0)
(0.13234 0 0)
(0.132161 0 0)
(0.132392 0 0)
(0.132328 0 0)
(0.132492 0 0)
(0.132466 0 0)
(0.132605 0 0)
(0.132577 0 0)
(0.1327 0 0)
(0.132662 0 0)
(0.132768 0 0)
(0.132723 0 0)
(0.132815 0 0)
(0.132765 0 0)
(0.132845 0 0)
(0.132794 0 0)
(0.132868 0 0)
(0.132818 0 0)
(0.132886 0 0)
(0.132839 0 0)
(0.132903 0 0)
(0.13286 0 0)
(0.13292 0 0)
(0.132881 0 0)
(0.132938 0 0)
(0.132902 0 0)
(0.132957 0 0)
(0.132924 0 0)
(0.132976 0 0)
(0.132947 0 0)
(0.132996 0 0)
(0.132971 0 0)
(0.133017 0 0)
(0.132995 0 0)
(0.133039 0 0)
(0.133019 0 0)
(0.133061 0 0)
(0.133044 0 0)
(0.133085 0 0)
(0.13307 0 0)
(0.133108 0 0)
(0.133096 0 0)
(0.133133 0 0)
(0.133123 0 0)
(0.133157 0 0)
(0.133149 0 0)
(0.133182 0 0)
(0.133177 0 0)
(0.133208 0 0)
(0.133204 0 0)
(0.133234 0 0)
(0.133232 0 0)
(0.13326 0 0)
(0.133259 0 0)
(0.133287 0 0)
(0.133287 0 0)
(0.133313 0 0)
(0.133315 0 0)
(0.13334 0 0)
(0.133342 0 0)
(0.133366 0 0)
(0.13337 0 0)
(0.133392 0 0)
(0.133397 0 0)
(0.133418 0 0)
(0.133424 0 0)
(0.133444 0 0)
(0.13345 0 0)
(0.13347 0 0)
(0.133476 0 0)
(0.133495 0 0)
(0.133502 0 0)
(0.133519 0 0)
(0.133526 0 0)
(0.133543 0 0)
(0.13355 0 0)
(0.133566 0 0)
(0.133573 0 0)
(0.133588 0 0)
(0.133595 0 0)
(0.133609 0 0)
(0.133616 0 0)
(0.133629 0 0)
(0.133636 0 0)
(0.133648 0 0)
(0.133655 0 0)
(0.133665 0 0)
(0.133673 0 0)
(0.13368 0 0)
(0.13369 0 0)
(0.133694 0 0)
(0.133706 0 0)
(0.133706 0 0)
(0.133719 0 0)
(0.133717 0 0)
(0.13373 0 0)
(0.133728 0 0)
(0.133739 0 0)
(0.133739 0 0)
(0.133748 0 0)
(0.133752 0 0)
(0.133762 0 0)
(0.133769 0 0)
(0.133782 0 0)
(0.133786 0 0)
(0.133784 0 0)
(0.133755 0 0)
(0.133705 0 0)
(0.133626 0 0)
(0.133539 0 0)
(0.133448 0 0)
(0.133374 0 0)
(0.133313 0 0)
(0.133274 0 0)
(0.133246 0 0)
(0.133233 0 0)
(0.133224 0 0)
(0.133223 0 0)
(0.133222 0 0)
(0.133226 0 0)
(0.133227 0 0)
(0.133231 0 0)
(0.133233 0 0)
(0.133237 0 0)
(0.133237 0 0)
(0.133241 0 0)
(0.133241 0 0)
(0.133243 0 0)
(0.133242 0 0)
(0.133244 0 0)
(0.133242 0 0)
(0.133243 0 0)
(0.133241 0 0)
(0.133241 0 0)
(0.133238 0 0)
(0.133237 0 0)
(0.133233 0 0)
(0.133231 0 0)
(0.133227 0 0)
(0.133224 0 0)
(0.133219 0 0)
(0.133216 0 0)
(0.13321 0 0)
(0.133206 0 0)
(0.1332 0 0)
(0.133194 0 0)
(0.133187 0 0)
(0.133182 0 0)
(0.133174 0 0)
(0.133167 0 0)
(0.133159 0 0)
(0.133152 0 0)
(0.133143 0 0)
(0.133135 0 0)
(0.133126 0 0)
(0.133117 0 0)
(0.133107 0 0)
(0.133098 0 0)
(0.133088 0 0)
(0.133078 0 0)
(0.133067 0 0)
(0.133056 0 0)
(0.133045 0 0)
(0.133034 0 0)
(0.133022 0 0)
(0.133011 0 0)
(0.132999 0 0)
(0.132987 0 0)
(0.132974 0 0)
(0.132962 0 0)
(0.132949 0 0)
(0.132936 0 0)
(0.132923 0 0)
(0.13291 0 0)
(0.132897 0 0)
(0.132883 0 0)
(0.13287 0 0)
(0.132856 0 0)
(0.132842 0 0)
(0.132828 0 0)
(0.132814 0 0)
(0.1328 0 0)
(0.132786 0 0)
(0.132772 0 0)
(0.132757 0 0)
(0.132743 0 0)
(0.132728 0 0)
(0.132714 0 0)
(0.132699 0 0)
(0.132685 0 0)
(0.13267 0 0)
(0.132655 0 0)
(0.132641 0 0)
(0.132626 0 0)
(0.132612 0 0)
(0.132597 0 0)
(0.132583 0 0)
(0.132568 0 0)
(0.132554 0 0)
(0.132539 0 0)
(0.132525 0 0)
(0.132511 0 0)
(0.132496 0 0)
(0.132482 0 0)
(0.132468 0 0)
(0.132454 0 0)
(0.13244 0 0)
(0.132426 0 0)
(0.132413 0 0)
(0.132399 0 0)
(0.132385 0 0)
(0.132372 0 0)
(0.132359 0 0)
(0.132346 0 0)
(0.132333 0 0)
(0.13232 0 0)
(0.132307 0 0)
(0.132294 0 0)
(0.132282 0 0)
(0.132269 0 0)
(0.132257 0 0)
(0.132245 0 0)
(0.132233 0 0)
(0.132221 0 0)
(0.13221 0 0)
(0.132198 0 0)
(0.132187 0 0)
(0.132176 0 0)
(0.132165 0 0)
(0.132154 0 0)
(0.132144 0 0)
(0.132133 0 0)
(0.132123 0 0)
(0.132113 0 0)
(0.132103 0 0)
(0.132093 0 0)
(0.132083 0 0)
(0.132074 0 0)
(0.132065 0 0)
(0.132056 0 0)
(0.132047 0 0)
(0.132038 0 0)
(0.132029 0 0)
(0.132021 0 0)
(0.132013 0 0)
(0.132005 0 0)
(0.131997 0 0)
(0.131989 0 0)
(0.131981 0 0)
(0.131974 0 0)
(0.131967 0 0)
(0.13196 0 0)
(0.131953 0 0)
(0.131946 0 0)
(0.131939 0 0)
(0.131933 0 0)
(0.131927 0 0)
(0.13192 0 0)
(0.131914 0 0)
(0.131909 0 0)
(0.131903 0 0)
(0.131897 0 0)
(0.131892 0 0)
(0.131887 0 0)
(0.131882 0 0)
(0.131877 0 0)
(0.131872 0 0)
(0.131867 0 0)
(0.131863 0 0)
(0.131858 0 0)
(0.131854 0 0)
(0.13185 0 0)
(0.131846 0 0)
(0.131842 0 0)
(0.131838 0 0)
(0.131834 0 0)
(0.131831 0 0)
(0.131827 0 0)
(0.131824 0 0)
(0.13182 0 0)
(0.131817 0 0)
(0.131814 0 0)
(0.131811 0 0)
(0.131808 0 0)
(0.131805 0 0)
(0.131803 0 0)
(0.1318 0 0)
(0.131798 0 0)
(0.131795 0 0)
(0.131793 0 0)
(0.131791 0 0)
(0.131788 0 0)
(0.131786 0 0)
(0.131784 0 0)
(0.131782 0 0)
(0.13178 0 0)
(0.131779 0 0)
(0.131777 0 0)
(0.131775 0 0)
(0.131774 0 0)
(0.131772 0 0)
(0.131771 0 0)
(0.131769 0 0)
(0.131768 0 0)
(0.131766 0 0)
(0.131765 0 0)
(0.131764 0 0)
(0.131763 0 0)
(0.131762 0 0)
(0.13176 0 0)
(0.131759 0 0)
(0.131758 0 0)
(0.131757 0 0)
(0.131757 0 0)
(0.131756 0 0)
(0.131755 0 0)
(0.131754 0 0)
(0.131753 0 0)
(0.131752 0 0)
(0.131752 0 0)
(0.131751 0 0)
(0.13175 0 0)
(0.13175 0 0)
(0.131749 0 0)
(0.131749 0 0)
(0.131748 0 0)
(0.131748 0 0)
(0.131747 0 0)
(0.131747 0 0)
(0.131746 0 0)
(0.131746 0 0)
(0.131745 0 0)
(0.131745 0 0)
(0.131745 0 0)
(0.131744 0 0)
(0.131744 0 0)
(0.131744 0 0)
(0.131743 0 0)
(0.131743 0 0)
(0.131743 0 0)
(0.131742 0 0)
(0.131742 0 0)
(0.131742 0 0)
(0.131742 0 0)
(0.131742 0 0)
(0.131741 0 0)
(0.131741 0 0)
(0.131741 0 0)
(0.131741 0 0)
(0.131741 0 0)
(0.131741 0 0)
(0.13174 0 0)
(0.13174 0 0)
(0.13174 0 0)
(0.13174 0 0)
(0.13174 0 0)
(0.13174 0 0)
(0.13174 0 0)
(0.13174 0 0)
(0.131739 0 0)
(0.131739 0 0)
(0.131739 0 0)
(0.131739 0 0)
(0.131739 0 0)
(0.131739 0 0)
(0.131739 0 0)
(0.131739 0 0)
(0.131739 0 0)
(0.131739 0 0)
(0.131739 0 0)
(0.131739 0 0)
(0.131739 0 0)
(0.131739 0 0)
(0.131739 0 0)
(0.131739 0 0)
(0.131739 0 0)
(0.131738 0 0)
(0.131738 0 0)
(0.131738 0 0)
(0.131738 0 0)
(0.131738 0 0)
(0.131738 0 0)
(0.131738 0 0)
(0.131738 0 0)
(0.131738 0 0)
(0.131738 0 0)
(0.131738 0 0)
(0.131738 0 0)
(0.131738 0 0)
(0.131738 0 0)
(0.131738 0 0)
(0.131738 0 0)
(0.131738 0 0)
(0.131738 0 0)
(0.131738 0 0)
(0.131738 0 0)
(0.131738 0 0)
(0.131738 0 0)
(0.131738 0 0)
(0.131738 0 0)
(0.131738 0 0)
(0.131738 0 0)
(0.131738 0 0)
(0.131738 0 0)
(0.131738 0 0)
(0.131738 0 0)
(0.131738 0 0)
(0.131738 0 0)
(0.131738 0 0)
(0.131738 0 0)
(0.131738 0 0)
(0.131738 0 0)
(0.131738 0 0)
(0.131738 0 0)
(0.131738 0 0)
(0.131738 0 0)
(0.131738 0 0)
(0.131738 0 0)
(0.131738 0 0)
(0.131738 0 0)
(0.131738 0 0)
(0.131738 0 0)
(0.131738 0 0)
(0.131738 0 0)
(0.131738 0 0)
(0.131738 0 0)
(0.131738 0 0)
(0.131738 0 0)
(0.131738 0 0)
(0.131738 0 0)
(0.131738 0 0)
(0.131738 0 0)
(0.131738 0 0)
(0.131738 0 0)
(0.131738 0 0)
(0.131738 0 0)
(0.131738 0 0)
(0.131738 0 0)
(0.131738 0 0)
(0.131738 0 0)
(0.131738 0 0)
(0.131738 0 0)
(0.131738 0 0)
(0.131738 0 0)
(0.131738 0 0)
(0.131738 0 0)
(0.131738 0 0)
(0.131738 0 0)
(0.131738 0 0)
(0.131738 0 0)
(0.131738 0 0)
(0.131738 0 0)
(0.131738 0 0)
(0.131738 0 0)
(0.131738 0 0)
(0.131738 0 0)
(0.131738 0 0)
(0.131738 0 0)
(0.131738 0 0)
(0.131738 0 0)
(0.131738 0 0)
(0.131738 0 0)
(0.131738 0 0)
(0.131738 0 0)
(0.131738 0 0)
(0.131738 0 0)
(0.131738 0 0)
(0.131738 0 0)
(0.131738 0 0)
(0.131738 0 0)
(0.131738 0 0)
(0.131738 0 0)
(0.131738 0 0)
(0.131738 0 0)
(0.131738 0 0)
(0.131738 0 0)
(0.131738 0 0)
(0.131738 0 0)
(0.131738 0 0)
(0.131738 0 0)
(0.131738 0 0)
(0.131738 0 0)
(0.131738 0 0)
(0.131738 0 0)
(0.131738 0 0)
(0.131738 0 0)
(0.131738 0 0)
(0.131738 0 0)
(0.131738 0 0)
(0.131738 0 0)
(0.131738 0 0)
(0.131738 0 0)
(0.131738 0 0)
(0.131738 0 0)
(0.131738 0 0)
(0.131738 0 0)
(0.131738 0 0)
(0.131738 0 0)
(0.131738 0 0)
(0.131738 0 0)
(0.131738 0 0)
(0.131738 0 0)
(0.131738 0 0)
(0.131738 0 0)
(0.131738 0 0)
(0.131738 0 0)
(0.131738 0 0)
(0.131738 0 0)
(0.131738 0 0)
(0.131738 0 0)
(0.131738 0 0)
(0.131738 0 0)
(0.131738 0 0)
(0.131738 0 0)
(0.131738 0 0)
(0.131738 0 0)
(0.131738 0 0)
(0.131738 0 0)
(0.131738 0 0)
(0.131738 0 0)
(0.131738 0 0)
(0.131738 0 0)
(0.131738 0 0)
(0.131738 0 0)
(0.131738 0 0)
(0.131738 0 0)
(0.131738 0 0)
(0.131738 0 0)
(0.131738 0 0)
(0.131738 0 0)
(0.131738 0 0)
(0.131738 0 0)
(0.131738 0 0)
(0.131738 0 0)
(0.131738 0 0)
(0.131738 0 0)
(0.131738 0 0)
(0.131738 0 0)
(0.131738 0 0)
(0.131738 0 0)
(0.131738 0 0)
(0.131738 0 0)
(0.131738 0 0)
(0.131738 0 0)
(0.131738 0 0)
(0.131738 0 0)
(0.131738 0 0)
(0.131738 0 0)
(0.131738 0 0)
(0.131738 0 0)
(0.131738 0 0)
(0.131738 0 0)
(0.131738 0 0)
(0.131738 0 0)
(0.131738 0 0)
(0.131738 0 0)
(0.131738 0 0)
(0.131738 0 0)
(0.131738 0 0)
(0.131738 0 0)
(0.131738 0 0)
(0.131738 0 0)
(0.131738 0 0)
(0.131738 0 0)
(0.131738 0 0)
(0.131738 0 0)
(0.131738 0 0)
(0.131738 0 0)
(0.131738 0 0)
(0.131738 0 0)
(0.131738 0 0)
(0.131738 0 0)
(0.131738 0 0)
(0.131738 0 0)
(0.131738 0 0)
(0.131738 0 0)
(0.131738 0 0)
(0.131738 0 0)
(0.131738 0 0)
(0.131738 0 0)
(0.131738 0 0)
(0.131738 0 0)
(0.131738 0 0)
(0.131738 0 0)
(0.131738 0 0)
(0.131738 0 0)
(0.131738 0 0)
(0.131738 0 0)
(0.131738 0 0)
(0.131738 0 0)
(0.131738 0 0)
(0.131738 0 0)
(0.131738 0 0)
(0.131738 0 0)
(0.131738 0 0)
(0.131738 0 0)
(0.131738 0 0)
(0.131738 0 0)
(0.131738 0 0)
(0.131738 0 0)
(0.131738 0 0)
(0.131738 0 0)
(0.131738 0 0)
(0.131738 0 0)
(0.131738 0 0)
(0.131738 0 0)
(0.131738 0 0)
(0.131738 0 0)
(0.131738 0 0)
(0.131738 0 0)
(0.131738 0 0)
(0.131738 0 0)
(0.131738 0 0)
(0.131738 0 0)
(0.131738 0 0)
(0.131738 0 0)
(0.131738 0 0)
(0.131738 0 0)
(0.131738 0 0)
(0.131738 0 0)
(0.131738 0 0)
(0.131738 0 0)
(0.131738 0 0)
(0.131738 0 0)
(0.131738 0 0)
(0.131738 0 0)
(0.131738 0 0)
(0.131738 0 0)
(0.131738 0 0)
(0.131738 0 0)
(0.131738 0 0)
(0.131738 0 0)
(0.131738 0 0)
(0.131738 0 0)
(0.131738 0 0)
(0.131738 0 0)
(0.131738 0 0)
(0.131738 0 0)
(0.131738 0 0)
(0.131738 0 0)
(0.131738 0 0)
(0.131738 0 0)
(0.131738 0 0)
(0.131738 0 0)
(0.131738 0 0)
(0.131738 0 0)
(0.131738 0 0)
(0.131738 0 0)
(0.131738 0 0)
(0.131738 0 0)
(0.131738 0 0)
(0.131738 0 0)
(0.131738 0 0)
(0.131738 0 0)
(0.131738 0 0)
(0.131738 0 0)
(0.131738 0 0)
(0.131738 0 0)
(0.131738 0 0)
(0.131738 0 0)
(0.131738 0 0)
(0.131738 0 0)
(0.131738 0 0)
(0.131738 0 0)
(0.131738 0 0)
(0.131738 0 0)
(0.131738 0 0)
(0.131738 0 0)
(0.131738 0 0)
(0.131738 0 0)
(0.131738 0 0)
(0.131738 0 0)
(0.131738 0 0)
(0.131738 0 0)
(0.131738 0 0)
(0.131738 0 0)
(0.131738 0 0)
(0.131738 0 0)
(0.131738 0 0)
(0.131738 0 0)
(0.131738 0 0)
(0.131738 0 0)
(0.131738 0 0)
(0.131738 0 0)
(0.131738 0 0)
(0.131738 0 0)
(0.131738 0 0)
(0.131738 0 0)
(0.131738 0 0)
(0.131738 0 0)
(0.131738 0 0)
(0.131738 0 0)
(0.131738 0 0)
(0.131738 0 0)
(0.131738 0 0)
(0.131738 0 0)
(0.131738 0 0)
(0.131738 0 0)
(0.131738 0 0)
(0.131738 0 0)
(0.131738 0 0)
(0.131738 0 0)
(0.131738 0 0)
(0.131738 0 0)
(0.131738 0 0)
(0.131738 0 0)
(0.131738 0 0)
(0.131738 0 0)
(0.131738 0 0)
(0.131738 0 0)
(0.131738 0 0)
(0.131738 0 0)
(0.131738 0 0)
(0.131738 0 0)
(0.131738 0 0)
(0.131738 0 0)
(0.131738 0 0)
(0.131738 0 0)
(0.131738 0 0)
(0.131738 0 0)
(0.131738 0 0)
(0.131738 0 0)
(0.131738 0 0)
(0.131738 0 0)
(0.131738 0 0)
(0.131738 0 0)
(0.131738 0 0)
(0.131738 0 0)
(0.131738 0 0)
(0.131738 0 0)
(0.131738 0 0)
(0.131738 0 0)
(0.131738 0 0)
(0.131738 0 0)
(0.131738 0 0)
(0.131738 0 0)
(0.131738 0 0)
(0.131738 0 0)
(0.131738 0 0)
(0.131738 0 0)
(0.131738 0 0)
(0.131738 0 0)
(0.131738 0 0)
(0.131738 0 0)
(0.131738 0 0)
(0.131738 0 0)
(0.131738 0 0)
(0.131738 0 0)
(0.131738 0 0)
(0.131738 0 0)
(0.131738 0 0)
(0.131738 0 0)
(0.131738 0 0)
(0.131738 0 0)
(0.131738 0 0)
(0.131738 0 0)
(0.131738 0 0)
(0.131738 0 0)
(0.131738 0 0)
(0.131738 0 0)
(0.131738 0 0)
(0.131738 0 0)
(0.131738 0 0)
(0.131737 0 0)
(0.131739 0 0)
(0.131737 0 0)
(0.131739 0 0)
(0.131737 0 0)
(0.131739 0 0)
(0.131737 0 0)
(0.131739 0 0)
(0.131737 0 0)
(0.131739 0 0)
(0.131737 0 0)
(0.131739 0 0)
(0.131737 0 0)
(0.131739 0 0)
(0.131737 0 0)
(0.131739 0 0)
(0.131737 0 0)
(0.131739 0 0)
(0.131737 0 0)
(0.131739 0 0)
(0.131737 0 0)
(0.131739 0 0)
(0.131736 0 0)
(0.13174 0 0)
(0.131736 0 0)
(0.13174 0 0)
(0.131736 0 0)
(0.13174 0 0)
(0.131736 0 0)
(0.13174 0 0)
(0.131736 0 0)
(0.13174 0 0)
(0.131736 0 0)
(0.13174 0 0)
(0.131735 0 0)
(0.131741 0 0)
(0.131735 0 0)
(0.131741 0 0)
(0.131735 0 0)
(0.131741 0 0)
(0.131735 0 0)
(0.131741 0 0)
(0.131734 0 0)
(0.131742 0 0)
(0.131734 0 0)
(0.131742 0 0)
(0.131734 0 0)
(0.131742 0 0)
(0.131734 0 0)
(0.131742 0 0)
(0.131733 0 0)
(0.131743 0 0)
(0.131733 0 0)
(0.131743 0 0)
(0.131732 0 0)
(0.131743 0 0)
(0.131732 0 0)
(0.131744 0 0)
(0.131732 0 0)
(0.131744 0 0)
(0.131731 0 0)
(0.131745 0 0)
(0.131731 0 0)
(0.131745 0 0)
(0.13173 0 0)
(0.131746 0 0)
(0.131729 0 0)
(0.131746 0 0)
(0.131729 0 0)
(0.131747 0 0)
(0.131728 0 0)
(0.131747 0 0)
(0.131728 0 0)
(0.131748 0 0)
(0.131727 0 0)
(0.131748 0 0)
(0.131726 0 0)
(0.131749 0 0)
(0.131726 0 0)
(0.13175 0 0)
(0.131725 0 0)
(0.13175 0 0)
(0.131724 0 0)
(0.131751 0 0)
(0.131723 0 0)
(0.131751 0 0)
(0.131722 0 0)
(0.131752 0 0)
(0.131722 0 0)
(0.131753 0 0)
(0.131721 0 0)
(0.131753 0 0)
(0.13172 0 0)
(0.131754 0 0)
(0.131719 0 0)
(0.131755 0 0)
(0.131718 0 0)
(0.131756 0 0)
(0.131717 0 0)
(0.131756 0 0)
(0.131716 0 0)
(0.131757 0 0)
(0.131715 0 0)
(0.131758 0 0)
(0.131714 0 0)
(0.131759 0 0)
(0.131713 0 0)
(0.131759 0 0)
(0.131711 0 0)
(0.13176 0 0)
(0.13171 0 0)
(0.131761 0 0)
(0.131709 0 0)
(0.131762 0 0)
(0.131708 0 0)
(0.131762 0 0)
(0.131707 0 0)
(0.131763 0 0)
(0.131706 0 0)
(0.131764 0 0)
(0.131705 0 0)
(0.131764 0 0)
(0.131704 0 0)
(0.131765 0 0)
(0.131702 0 0)
(0.131766 0 0)
(0.131701 0 0)
(0.131766 0 0)
(0.1317 0 0)
(0.131767 0 0)
(0.131699 0 0)
(0.131767 0 0)
(0.131698 0 0)
(0.131768 0 0)
(0.131697 0 0)
(0.131769 0 0)
(0.131696 0 0)
(0.131769 0 0)
(0.131695 0 0)
)
;

boundaryField
{
    topWall
    {
        type            empty;
    }
    bottomWall
    {
        type            empty;
    }
    leftAndRight_half1
    {
        type            cyclic;
    }
    leftAndRight_half0
    {
        type            cyclic;
    }
    frontAndBack
    {
        type            empty;
    }
}


// ************************************************************************* //
