/*--------------------------------*- C++ -*----------------------------------*\
  =========                 |
  \\      /  F ield         | OpenFOAM: The Open Source CFD Toolbox
   \\    /   O peration     | Website:  https://openfoam.org
    \\  /    A nd           | Version:  9
     \\/     M anipulation  |
\*---------------------------------------------------------------------------*/
FoamFile
{
    format      ascii;
    class       volVectorField;
    location    "3.85";
    object      U;
}
// * * * * * * * * * * * * * * * * * * * * * * * * * * * * * * * * * * * * * //

dimensions      [0 1 -1 0 0 0 0];

internalField   nonuniform List<vector> 
1000
(
(0.131767 0 0)
(0.131693 0 0)
(0.131768 0 0)
(0.131691 0 0)
(0.131768 0 0)
(0.13169 0 0)
(0.131769 0 0)
(0.131688 0 0)
(0.131769 0 0)
(0.131687 0 0)
(0.13177 0 0)
(0.131686 0 0)
(0.13177 0 0)
(0.131684 0 0)
(0.13177 0 0)
(0.131683 0 0)
(0.131771 0 0)
(0.131682 0 0)
(0.131771 0 0)
(0.131681 0 0)
(0.131771 0 0)
(0.13168 0 0)
(0.131772 0 0)
(0.13168 0 0)
(0.131772 0 0)
(0.131679 0 0)
(0.131772 0 0)
(0.131679 0 0)
(0.131773 0 0)
(0.131679 0 0)
(0.131773 0 0)
(0.131679 0 0)
(0.131774 0 0)
(0.131679 0 0)
(0.131775 0 0)
(0.13168 0 0)
(0.131775 0 0)
(0.131681 0 0)
(0.131776 0 0)
(0.131682 0 0)
(0.131777 0 0)
(0.131684 0 0)
(0.131779 0 0)
(0.131686 0 0)
(0.13178 0 0)
(0.131688 0 0)
(0.131782 0 0)
(0.131691 0 0)
(0.131784 0 0)
(0.131695 0 0)
(0.131787 0 0)
(0.131698 0 0)
(0.13179 0 0)
(0.131703 0 0)
(0.131793 0 0)
(0.131708 0 0)
(0.131797 0 0)
(0.131714 0 0)
(0.131801 0 0)
(0.13172 0 0)
(0.131806 0 0)
(0.131727 0 0)
(0.131812 0 0)
(0.131735 0 0)
(0.131818 0 0)
(0.131744 0 0)
(0.131825 0 0)
(0.131754 0 0)
(0.131833 0 0)
(0.131765 0 0)
(0.131842 0 0)
(0.131777 0 0)
(0.131852 0 0)
(0.131789 0 0)
(0.131863 0 0)
(0.131803 0 0)
(0.131874 0 0)
(0.131818 0 0)
(0.131887 0 0)
(0.131835 0 0)
(0.131902 0 0)
(0.131852 0 0)
(0.131918 0 0)
(0.13187 0 0)
(0.131937 0 0)
(0.131886 0 0)
(0.131962 0 0)
(0.131898 0 0)
(0.131998 0 0)
(0.131899 0 0)
(0.132053 0 0)
(0.131884 0 0)
(0.132132 0 0)
(0.131862 0 0)
(0.13222 0 0)
(0.131872 0 0)
(0.132284 0 0)
(0.131964 0 0)
(0.132314 0 0)
(0.132131 0 0)
(0.132368 0 0)
(0.1323 0 0)
(0.132469 0 0)
(0.132441 0 0)
(0.132584 0 0)
(0.132555 0 0)
(0.132681 0 0)
(0.132643 0 0)
(0.132753 0 0)
(0.132707 0 0)
(0.132802 0 0)
(0.132752 0 0)
(0.132836 0 0)
(0.132785 0 0)
(0.132862 0 0)
(0.132813 0 0)
(0.132884 0 0)
(0.132839 0 0)
(0.132905 0 0)
(0.132864 0 0)
(0.132927 0 0)
(0.13289 0 0)
(0.132949 0 0)
(0.132917 0 0)
(0.132973 0 0)
(0.132944 0 0)
(0.132997 0 0)
(0.132973 0 0)
(0.133023 0 0)
(0.133002 0 0)
(0.13305 0 0)
(0.133032 0 0)
(0.133077 0 0)
(0.133063 0 0)
(0.133106 0 0)
(0.133094 0 0)
(0.133135 0 0)
(0.133126 0 0)
(0.133165 0 0)
(0.133159 0 0)
(0.133196 0 0)
(0.133192 0 0)
(0.133227 0 0)
(0.133226 0 0)
(0.133259 0 0)
(0.13326 0 0)
(0.133291 0 0)
(0.133294 0 0)
(0.133324 0 0)
(0.133328 0 0)
(0.133357 0 0)
(0.133363 0 0)
(0.13339 0 0)
(0.133397 0 0)
(0.133423 0 0)
(0.133431 0 0)
(0.133456 0 0)
(0.133465 0 0)
(0.133489 0 0)
(0.133499 0 0)
(0.133522 0 0)
(0.133533 0 0)
(0.133554 0 0)
(0.133566 0 0)
(0.133586 0 0)
(0.133598 0 0)
(0.133617 0 0)
(0.133629 0 0)
(0.133648 0 0)
(0.13366 0 0)
(0.133677 0 0)
(0.13369 0 0)
(0.133706 0 0)
(0.133718 0 0)
(0.133733 0 0)
(0.133745 0 0)
(0.133759 0 0)
(0.133771 0 0)
(0.133784 0 0)
(0.133796 0 0)
(0.133808 0 0)
(0.133819 0 0)
(0.13383 0 0)
(0.13384 0 0)
(0.133849 0 0)
(0.13386 0 0)
(0.133867 0 0)
(0.133879 0 0)
(0.133882 0 0)
(0.133896 0 0)
(0.133895 0 0)
(0.13391 0 0)
(0.133907 0 0)
(0.133922 0 0)
(0.133918 0 0)
(0.13393 0 0)
(0.133929 0 0)
(0.133938 0 0)
(0.13394 0 0)
(0.133951 0 0)
(0.133957 0 0)
(0.133969 0 0)
(0.133972 0 0)
(0.133969 0 0)
(0.133938 0 0)
(0.133887 0 0)
(0.133806 0 0)
(0.133718 0 0)
(0.133625 0 0)
(0.13355 0 0)
(0.133486 0 0)
(0.133445 0 0)
(0.133414 0 0)
(0.133399 0 0)
(0.133387 0 0)
(0.133384 0 0)
(0.13338 0 0)
(0.133381 0 0)
(0.133379 0 0)
(0.13338 0 0)
(0.133378 0 0)
(0.133379 0 0)
(0.133376 0 0)
(0.133376 0 0)
(0.133372 0 0)
(0.133371 0 0)
(0.133367 0 0)
(0.133364 0 0)
(0.133359 0 0)
(0.133356 0 0)
(0.133349 0 0)
(0.133345 0 0)
(0.133338 0 0)
(0.133333 0 0)
(0.133325 0 0)
(0.133318 0 0)
(0.13331 0 0)
(0.133303 0 0)
(0.133293 0 0)
(0.133285 0 0)
(0.133275 0 0)
(0.133266 0 0)
(0.133255 0 0)
(0.133245 0 0)
(0.133233 0 0)
(0.133223 0 0)
(0.13321 0 0)
(0.133199 0 0)
(0.133186 0 0)
(0.133174 0 0)
(0.13316 0 0)
(0.133148 0 0)
(0.133134 0 0)
(0.13312 0 0)
(0.133106 0 0)
(0.133092 0 0)
(0.133077 0 0)
(0.133063 0 0)
(0.133047 0 0)
(0.133032 0 0)
(0.133016 0 0)
(0.133001 0 0)
(0.132985 0 0)
(0.132969 0 0)
(0.132953 0 0)
(0.132937 0 0)
(0.13292 0 0)
(0.132904 0 0)
(0.132887 0 0)
(0.13287 0 0)
(0.132853 0 0)
(0.132837 0 0)
(0.132819 0 0)
(0.132802 0 0)
(0.132785 0 0)
(0.132768 0 0)
(0.132751 0 0)
(0.132734 0 0)
(0.132717 0 0)
(0.1327 0 0)
(0.132682 0 0)
(0.132665 0 0)
(0.132648 0 0)
(0.132631 0 0)
(0.132614 0 0)
(0.132597 0 0)
(0.13258 0 0)
(0.132564 0 0)
(0.132547 0 0)
(0.13253 0 0)
(0.132514 0 0)
(0.132497 0 0)
(0.132481 0 0)
(0.132465 0 0)
(0.132449 0 0)
(0.132433 0 0)
(0.132417 0 0)
(0.132402 0 0)
(0.132387 0 0)
(0.132371 0 0)
(0.132356 0 0)
(0.132341 0 0)
(0.132327 0 0)
(0.132312 0 0)
(0.132298 0 0)
(0.132284 0 0)
(0.13227 0 0)
(0.132256 0 0)
(0.132242 0 0)
(0.132229 0 0)
(0.132216 0 0)
(0.132203 0 0)
(0.13219 0 0)
(0.132177 0 0)
(0.132165 0 0)
(0.132153 0 0)
(0.132141 0 0)
(0.132129 0 0)
(0.132118 0 0)
(0.132107 0 0)
(0.132096 0 0)
(0.132085 0 0)
(0.132074 0 0)
(0.132064 0 0)
(0.132054 0 0)
(0.132044 0 0)
(0.132034 0 0)
(0.132025 0 0)
(0.132015 0 0)
(0.132006 0 0)
(0.131997 0 0)
(0.131989 0 0)
(0.13198 0 0)
(0.131972 0 0)
(0.131964 0 0)
(0.131956 0 0)
(0.131949 0 0)
(0.131941 0 0)
(0.131934 0 0)
(0.131927 0 0)
(0.13192 0 0)
(0.131914 0 0)
(0.131907 0 0)
(0.131901 0 0)
(0.131895 0 0)
(0.131889 0 0)
(0.131883 0 0)
(0.131878 0 0)
(0.131872 0 0)
(0.131867 0 0)
(0.131862 0 0)
(0.131857 0 0)
(0.131852 0 0)
(0.131848 0 0)
(0.131843 0 0)
(0.131839 0 0)
(0.131835 0 0)
(0.131831 0 0)
(0.131827 0 0)
(0.131823 0 0)
(0.13182 0 0)
(0.131816 0 0)
(0.131813 0 0)
(0.131809 0 0)
(0.131806 0 0)
(0.131803 0 0)
(0.1318 0 0)
(0.131798 0 0)
(0.131795 0 0)
(0.131792 0 0)
(0.13179 0 0)
(0.131788 0 0)
(0.131785 0 0)
(0.131783 0 0)
(0.131781 0 0)
(0.131779 0 0)
(0.131777 0 0)
(0.131775 0 0)
(0.131773 0 0)
(0.131772 0 0)
(0.13177 0 0)
(0.131768 0 0)
(0.131767 0 0)
(0.131765 0 0)
(0.131764 0 0)
(0.131763 0 0)
(0.131761 0 0)
(0.13176 0 0)
(0.131759 0 0)
(0.131758 0 0)
(0.131757 0 0)
(0.131756 0 0)
(0.131755 0 0)
(0.131754 0 0)
(0.131753 0 0)
(0.131752 0 0)
(0.131752 0 0)
(0.131751 0 0)
(0.13175 0 0)
(0.13175 0 0)
(0.131749 0 0)
(0.131748 0 0)
(0.131748 0 0)
(0.131747 0 0)
(0.131747 0 0)
(0.131746 0 0)
(0.131746 0 0)
(0.131745 0 0)
(0.131745 0 0)
(0.131744 0 0)
(0.131744 0 0)
(0.131744 0 0)
(0.131743 0 0)
(0.131743 0 0)
(0.131743 0 0)
(0.131742 0 0)
(0.131742 0 0)
(0.131742 0 0)
(0.131742 0 0)
(0.131741 0 0)
(0.131741 0 0)
(0.131741 0 0)
(0.131741 0 0)
(0.131741 0 0)
(0.131741 0 0)
(0.13174 0 0)
(0.13174 0 0)
(0.13174 0 0)
(0.13174 0 0)
(0.13174 0 0)
(0.13174 0 0)
(0.13174 0 0)
(0.131739 0 0)
(0.131739 0 0)
(0.131739 0 0)
(0.131739 0 0)
(0.131739 0 0)
(0.131739 0 0)
(0.131739 0 0)
(0.131739 0 0)
(0.131739 0 0)
(0.131739 0 0)
(0.131739 0 0)
(0.131739 0 0)
(0.131739 0 0)
(0.131739 0 0)
(0.131739 0 0)
(0.131739 0 0)
(0.131738 0 0)
(0.131738 0 0)
(0.131738 0 0)
(0.131738 0 0)
(0.131738 0 0)
(0.131738 0 0)
(0.131738 0 0)
(0.131738 0 0)
(0.131738 0 0)
(0.131738 0 0)
(0.131738 0 0)
(0.131738 0 0)
(0.131738 0 0)
(0.131738 0 0)
(0.131738 0 0)
(0.131738 0 0)
(0.131738 0 0)
(0.131738 0 0)
(0.131738 0 0)
(0.131738 0 0)
(0.131738 0 0)
(0.131738 0 0)
(0.131738 0 0)
(0.131738 0 0)
(0.131738 0 0)
(0.131738 0 0)
(0.131738 0 0)
(0.131738 0 0)
(0.131738 0 0)
(0.131738 0 0)
(0.131738 0 0)
(0.131738 0 0)
(0.131738 0 0)
(0.131738 0 0)
(0.131738 0 0)
(0.131738 0 0)
(0.131738 0 0)
(0.131738 0 0)
(0.131738 0 0)
(0.131738 0 0)
(0.131738 0 0)
(0.131738 0 0)
(0.131738 0 0)
(0.131738 0 0)
(0.131738 0 0)
(0.131738 0 0)
(0.131738 0 0)
(0.131738 0 0)
(0.131738 0 0)
(0.131738 0 0)
(0.131738 0 0)
(0.131738 0 0)
(0.131738 0 0)
(0.131738 0 0)
(0.131738 0 0)
(0.131738 0 0)
(0.131738 0 0)
(0.131738 0 0)
(0.131738 0 0)
(0.131738 0 0)
(0.131738 0 0)
(0.131738 0 0)
(0.131738 0 0)
(0.131738 0 0)
(0.131738 0 0)
(0.131738 0 0)
(0.131738 0 0)
(0.131738 0 0)
(0.131738 0 0)
(0.131738 0 0)
(0.131738 0 0)
(0.131738 0 0)
(0.131738 0 0)
(0.131738 0 0)
(0.131738 0 0)
(0.131738 0 0)
(0.131738 0 0)
(0.131738 0 0)
(0.131738 0 0)
(0.131738 0 0)
(0.131738 0 0)
(0.131738 0 0)
(0.131738 0 0)
(0.131738 0 0)
(0.131738 0 0)
(0.131738 0 0)
(0.131738 0 0)
(0.131738 0 0)
(0.131738 0 0)
(0.131738 0 0)
(0.131738 0 0)
(0.131738 0 0)
(0.131738 0 0)
(0.131738 0 0)
(0.131738 0 0)
(0.131738 0 0)
(0.131738 0 0)
(0.131738 0 0)
(0.131738 0 0)
(0.131738 0 0)
(0.131738 0 0)
(0.131738 0 0)
(0.131738 0 0)
(0.131738 0 0)
(0.131738 0 0)
(0.131738 0 0)
(0.131738 0 0)
(0.131738 0 0)
(0.131738 0 0)
(0.131738 0 0)
(0.131738 0 0)
(0.131738 0 0)
(0.131738 0 0)
(0.131738 0 0)
(0.131738 0 0)
(0.131738 0 0)
(0.131738 0 0)
(0.131738 0 0)
(0.131738 0 0)
(0.131738 0 0)
(0.131738 0 0)
(0.131738 0 0)
(0.131738 0 0)
(0.131738 0 0)
(0.131738 0 0)
(0.131738 0 0)
(0.131738 0 0)
(0.131738 0 0)
(0.131738 0 0)
(0.131738 0 0)
(0.131738 0 0)
(0.131738 0 0)
(0.131738 0 0)
(0.131738 0 0)
(0.131738 0 0)
(0.131738 0 0)
(0.131738 0 0)
(0.131738 0 0)
(0.131738 0 0)
(0.131738 0 0)
(0.131738 0 0)
(0.131738 0 0)
(0.131738 0 0)
(0.131738 0 0)
(0.131738 0 0)
(0.131738 0 0)
(0.131738 0 0)
(0.131738 0 0)
(0.131738 0 0)
(0.131738 0 0)
(0.131738 0 0)
(0.131738 0 0)
(0.131738 0 0)
(0.131738 0 0)
(0.131738 0 0)
(0.131738 0 0)
(0.131738 0 0)
(0.131738 0 0)
(0.131738 0 0)
(0.131738 0 0)
(0.131738 0 0)
(0.131738 0 0)
(0.131738 0 0)
(0.131738 0 0)
(0.131738 0 0)
(0.131738 0 0)
(0.131738 0 0)
(0.131738 0 0)
(0.131738 0 0)
(0.131738 0 0)
(0.131738 0 0)
(0.131738 0 0)
(0.131738 0 0)
(0.131738 0 0)
(0.131738 0 0)
(0.131738 0 0)
(0.131738 0 0)
(0.131738 0 0)
(0.131738 0 0)
(0.131738 0 0)
(0.131738 0 0)
(0.131738 0 0)
(0.131738 0 0)
(0.131738 0 0)
(0.131738 0 0)
(0.131738 0 0)
(0.131738 0 0)
(0.131738 0 0)
(0.131738 0 0)
(0.131738 0 0)
(0.131738 0 0)
(0.131738 0 0)
(0.131738 0 0)
(0.131738 0 0)
(0.131738 0 0)
(0.131738 0 0)
(0.131738 0 0)
(0.131738 0 0)
(0.131738 0 0)
(0.131738 0 0)
(0.131738 0 0)
(0.131738 0 0)
(0.131738 0 0)
(0.131738 0 0)
(0.131738 0 0)
(0.131738 0 0)
(0.131738 0 0)
(0.131738 0 0)
(0.131738 0 0)
(0.131738 0 0)
(0.131738 0 0)
(0.131738 0 0)
(0.131738 0 0)
(0.131738 0 0)
(0.131738 0 0)
(0.131738 0 0)
(0.131738 0 0)
(0.131738 0 0)
(0.131738 0 0)
(0.131738 0 0)
(0.131738 0 0)
(0.131738 0 0)
(0.131738 0 0)
(0.131738 0 0)
(0.131738 0 0)
(0.131738 0 0)
(0.131738 0 0)
(0.131738 0 0)
(0.131738 0 0)
(0.131738 0 0)
(0.131738 0 0)
(0.131738 0 0)
(0.131738 0 0)
(0.131738 0 0)
(0.131738 0 0)
(0.131738 0 0)
(0.131738 0 0)
(0.131738 0 0)
(0.131738 0 0)
(0.131738 0 0)
(0.131738 0 0)
(0.131738 0 0)
(0.131738 0 0)
(0.131738 0 0)
(0.131738 0 0)
(0.131738 0 0)
(0.131738 0 0)
(0.131738 0 0)
(0.131738 0 0)
(0.131738 0 0)
(0.131738 0 0)
(0.131738 0 0)
(0.131738 0 0)
(0.131738 0 0)
(0.131738 0 0)
(0.131738 0 0)
(0.131738 0 0)
(0.131738 0 0)
(0.131738 0 0)
(0.131738 0 0)
(0.131738 0 0)
(0.131738 0 0)
(0.131738 0 0)
(0.131738 0 0)
(0.131738 0 0)
(0.131738 0 0)
(0.131738 0 0)
(0.131738 0 0)
(0.131738 0 0)
(0.131738 0 0)
(0.131738 0 0)
(0.131738 0 0)
(0.131738 0 0)
(0.131738 0 0)
(0.131738 0 0)
(0.131738 0 0)
(0.131738 0 0)
(0.131738 0 0)
(0.131738 0 0)
(0.131738 0 0)
(0.131738 0 0)
(0.131738 0 0)
(0.131738 0 0)
(0.131738 0 0)
(0.131738 0 0)
(0.131738 0 0)
(0.131738 0 0)
(0.131738 0 0)
(0.131738 0 0)
(0.131738 0 0)
(0.131738 0 0)
(0.131738 0 0)
(0.131738 0 0)
(0.131738 0 0)
(0.131738 0 0)
(0.131738 0 0)
(0.131738 0 0)
(0.131738 0 0)
(0.131738 0 0)
(0.131738 0 0)
(0.131738 0 0)
(0.131738 0 0)
(0.131738 0 0)
(0.131738 0 0)
(0.131738 0 0)
(0.131738 0 0)
(0.131738 0 0)
(0.131738 0 0)
(0.131738 0 0)
(0.131738 0 0)
(0.131738 0 0)
(0.131738 0 0)
(0.131738 0 0)
(0.131738 0 0)
(0.131738 0 0)
(0.131738 0 0)
(0.131738 0 0)
(0.131738 0 0)
(0.131738 0 0)
(0.131738 0 0)
(0.131738 0 0)
(0.131738 0 0)
(0.131738 0 0)
(0.131738 0 0)
(0.131738 0 0)
(0.131738 0 0)
(0.131738 0 0)
(0.131738 0 0)
(0.131738 0 0)
(0.131738 0 0)
(0.131738 0 0)
(0.131738 0 0)
(0.131738 0 0)
(0.131738 0 0)
(0.131738 0 0)
(0.131738 0 0)
(0.131738 0 0)
(0.131738 0 0)
(0.131738 0 0)
(0.131738 0 0)
(0.131738 0 0)
(0.131738 0 0)
(0.131738 0 0)
(0.131738 0 0)
(0.131738 0 0)
(0.131738 0 0)
(0.131738 0 0)
(0.131738 0 0)
(0.131738 0 0)
(0.131738 0 0)
(0.131738 0 0)
(0.131738 0 0)
(0.131738 0 0)
(0.131738 0 0)
(0.131738 0 0)
(0.131738 0 0)
(0.131738 0 0)
(0.131738 0 0)
(0.131738 0 0)
(0.131738 0 0)
(0.131738 0 0)
(0.131738 0 0)
(0.131738 0 0)
(0.131738 0 0)
(0.131738 0 0)
(0.131738 0 0)
(0.131738 0 0)
(0.131738 0 0)
(0.131738 0 0)
(0.131738 0 0)
(0.131738 0 0)
(0.131738 0 0)
(0.131738 0 0)
(0.131738 0 0)
(0.131738 0 0)
(0.131738 0 0)
(0.131738 0 0)
(0.131738 0 0)
(0.131738 0 0)
(0.131738 0 0)
(0.131738 0 0)
(0.131738 0 0)
(0.131738 0 0)
(0.131738 0 0)
(0.131738 0 0)
(0.131738 0 0)
(0.131738 0 0)
(0.131738 0 0)
(0.131738 0 0)
(0.131738 0 0)
(0.131738 0 0)
(0.131738 0 0)
(0.131738 0 0)
(0.131738 0 0)
(0.131738 0 0)
(0.131738 0 0)
(0.131738 0 0)
(0.131738 0 0)
(0.131738 0 0)
(0.131738 0 0)
(0.131738 0 0)
(0.131738 0 0)
(0.131738 0 0)
(0.131738 0 0)
(0.131738 0 0)
(0.131738 0 0)
(0.131738 0 0)
(0.131738 0 0)
(0.131738 0 0)
(0.131738 0 0)
(0.131738 0 0)
(0.131738 0 0)
(0.131738 0 0)
(0.131738 0 0)
(0.131738 0 0)
(0.131738 0 0)
(0.131738 0 0)
(0.131738 0 0)
(0.131738 0 0)
(0.131738 0 0)
(0.131738 0 0)
(0.131738 0 0)
(0.131738 0 0)
(0.131738 0 0)
(0.131738 0 0)
(0.131738 0 0)
(0.131738 0 0)
(0.131738 0 0)
(0.131738 0 0)
(0.131738 0 0)
(0.131738 0 0)
(0.131738 0 0)
(0.131738 0 0)
(0.131738 0 0)
(0.131738 0 0)
(0.131737 0 0)
(0.131739 0 0)
(0.131737 0 0)
(0.131739 0 0)
(0.131737 0 0)
(0.131739 0 0)
(0.131737 0 0)
(0.131739 0 0)
(0.131737 0 0)
(0.131739 0 0)
(0.131737 0 0)
(0.131739 0 0)
(0.131737 0 0)
(0.131739 0 0)
(0.131737 0 0)
(0.131739 0 0)
(0.131737 0 0)
(0.131739 0 0)
(0.131737 0 0)
(0.131739 0 0)
(0.131736 0 0)
(0.13174 0 0)
(0.131736 0 0)
(0.13174 0 0)
(0.131736 0 0)
(0.13174 0 0)
(0.131736 0 0)
(0.13174 0 0)
(0.131736 0 0)
(0.13174 0 0)
(0.131735 0 0)
(0.131741 0 0)
(0.131735 0 0)
(0.131741 0 0)
(0.131735 0 0)
(0.131741 0 0)
(0.131735 0 0)
(0.131741 0 0)
(0.131734 0 0)
(0.131742 0 0)
(0.131734 0 0)
(0.131742 0 0)
(0.131734 0 0)
(0.131742 0 0)
(0.131733 0 0)
(0.131743 0 0)
(0.131733 0 0)
(0.131743 0 0)
(0.131732 0 0)
(0.131743 0 0)
(0.131732 0 0)
(0.131744 0 0)
(0.131731 0 0)
(0.131744 0 0)
(0.131731 0 0)
(0.131745 0 0)
(0.13173 0 0)
(0.131745 0 0)
(0.131729 0 0)
(0.131746 0 0)
(0.131729 0 0)
(0.131746 0 0)
(0.131728 0 0)
(0.131747 0 0)
(0.131727 0 0)
(0.131748 0 0)
(0.131727 0 0)
(0.131748 0 0)
(0.131726 0 0)
(0.131749 0 0)
(0.131725 0 0)
(0.13175 0 0)
(0.131724 0 0)
(0.13175 0 0)
(0.131723 0 0)
(0.131751 0 0)
(0.131722 0 0)
(0.131752 0 0)
(0.131721 0 0)
(0.131753 0 0)
(0.13172 0 0)
(0.131753 0 0)
(0.131719 0 0)
(0.131754 0 0)
(0.131718 0 0)
(0.131755 0 0)
(0.131716 0 0)
(0.131756 0 0)
(0.131715 0 0)
(0.131757 0 0)
(0.131714 0 0)
(0.131758 0 0)
(0.131712 0 0)
(0.131758 0 0)
(0.131711 0 0)
(0.131759 0 0)
(0.13171 0 0)
(0.13176 0 0)
(0.131708 0 0)
(0.131761 0 0)
(0.131707 0 0)
(0.131762 0 0)
(0.131705 0 0)
(0.131762 0 0)
(0.131704 0 0)
(0.131763 0 0)
(0.131702 0 0)
(0.131764 0 0)
(0.131701 0 0)
(0.131765 0 0)
(0.131699 0 0)
(0.131765 0 0)
(0.131697 0 0)
(0.131766 0 0)
(0.131696 0 0)
(0.131767 0 0)
(0.131694 0 0)
)
;

boundaryField
{
    topWall
    {
        type            empty;
    }
    bottomWall
    {
        type            empty;
    }
    leftAndRight_half1
    {
        type            cyclic;
    }
    leftAndRight_half0
    {
        type            cyclic;
    }
    frontAndBack
    {
        type            empty;
    }
}


// ************************************************************************* //
