/*--------------------------------*- C++ -*----------------------------------*\
  =========                 |
  \\      /  F ield         | OpenFOAM: The Open Source CFD Toolbox
   \\    /   O peration     | Website:  https://openfoam.org
    \\  /    A nd           | Version:  9
     \\/     M anipulation  |
\*---------------------------------------------------------------------------*/
FoamFile
{
    format      ascii;
    class       volVectorField;
    location    "1.75";
    object      U;
}
// * * * * * * * * * * * * * * * * * * * * * * * * * * * * * * * * * * * * * //

dimensions      [0 1 -1 0 0 0 0];

internalField   nonuniform List<vector> 
1000
(
(0.131751 0 0)
(0.131717 0 0)
(0.131753 0 0)
(0.131715 0 0)
(0.131754 0 0)
(0.131712 0 0)
(0.131755 0 0)
(0.131709 0 0)
(0.131756 0 0)
(0.131706 0 0)
(0.131758 0 0)
(0.131703 0 0)
(0.131759 0 0)
(0.131699 0 0)
(0.13176 0 0)
(0.131695 0 0)
(0.131761 0 0)
(0.131691 0 0)
(0.131762 0 0)
(0.131687 0 0)
(0.131763 0 0)
(0.131682 0 0)
(0.131764 0 0)
(0.131677 0 0)
(0.131765 0 0)
(0.131672 0 0)
(0.131765 0 0)
(0.131666 0 0)
(0.131766 0 0)
(0.131661 0 0)
(0.131766 0 0)
(0.131655 0 0)
(0.131765 0 0)
(0.131649 0 0)
(0.131765 0 0)
(0.131643 0 0)
(0.131764 0 0)
(0.131637 0 0)
(0.131763 0 0)
(0.13163 0 0)
(0.131761 0 0)
(0.131624 0 0)
(0.131759 0 0)
(0.131617 0 0)
(0.131757 0 0)
(0.131611 0 0)
(0.131755 0 0)
(0.131605 0 0)
(0.131752 0 0)
(0.131599 0 0)
(0.131749 0 0)
(0.131593 0 0)
(0.131745 0 0)
(0.131588 0 0)
(0.131742 0 0)
(0.131583 0 0)
(0.131738 0 0)
(0.131578 0 0)
(0.131735 0 0)
(0.131574 0 0)
(0.131731 0 0)
(0.131571 0 0)
(0.131728 0 0)
(0.131569 0 0)
(0.131725 0 0)
(0.131568 0 0)
(0.131722 0 0)
(0.131568 0 0)
(0.13172 0 0)
(0.13157 0 0)
(0.131719 0 0)
(0.131573 0 0)
(0.131719 0 0)
(0.131577 0 0)
(0.13172 0 0)
(0.131584 0 0)
(0.131722 0 0)
(0.131592 0 0)
(0.131726 0 0)
(0.131603 0 0)
(0.131733 0 0)
(0.131615 0 0)
(0.131741 0 0)
(0.131629 0 0)
(0.131753 0 0)
(0.131644 0 0)
(0.131772 0 0)
(0.131655 0 0)
(0.131804 0 0)
(0.131656 0 0)
(0.131856 0 0)
(0.131643 0 0)
(0.131934 0 0)
(0.131625 0 0)
(0.132022 0 0)
(0.131641 0 0)
(0.132088 0 0)
(0.13174 0 0)
(0.132121 0 0)
(0.131917 0 0)
(0.132181 0 0)
(0.132097 0 0)
(0.132291 0 0)
(0.132251 0 0)
(0.132415 0 0)
(0.132381 0 0)
(0.132525 0 0)
(0.132486 0 0)
(0.13261 0 0)
(0.132569 0 0)
(0.132676 0 0)
(0.132635 0 0)
(0.132729 0 0)
(0.132692 0 0)
(0.132775 0 0)
(0.132745 0 0)
(0.13282 0 0)
(0.132797 0 0)
(0.132866 0 0)
(0.13285 0 0)
(0.132914 0 0)
(0.132906 0 0)
(0.132965 0 0)
(0.132963 0 0)
(0.133018 0 0)
(0.133022 0 0)
(0.133074 0 0)
(0.133084 0 0)
(0.133132 0 0)
(0.133147 0 0)
(0.133191 0 0)
(0.133211 0 0)
(0.133253 0 0)
(0.133277 0 0)
(0.133316 0 0)
(0.133344 0 0)
(0.13338 0 0)
(0.133411 0 0)
(0.133446 0 0)
(0.133479 0 0)
(0.133512 0 0)
(0.133547 0 0)
(0.133578 0 0)
(0.133614 0 0)
(0.133644 0 0)
(0.133682 0 0)
(0.13371 0 0)
(0.133749 0 0)
(0.133776 0 0)
(0.133815 0 0)
(0.13384 0 0)
(0.13388 0 0)
(0.133904 0 0)
(0.133943 0 0)
(0.133966 0 0)
(0.134005 0 0)
(0.134027 0 0)
(0.134066 0 0)
(0.134086 0 0)
(0.134124 0 0)
(0.134143 0 0)
(0.13418 0 0)
(0.134198 0 0)
(0.134233 0 0)
(0.134251 0 0)
(0.134284 0 0)
(0.134301 0 0)
(0.134333 0 0)
(0.134348 0 0)
(0.134378 0 0)
(0.134392 0 0)
(0.13442 0 0)
(0.134432 0 0)
(0.134459 0 0)
(0.13447 0 0)
(0.134494 0 0)
(0.134504 0 0)
(0.134526 0 0)
(0.134535 0 0)
(0.134555 0 0)
(0.134561 0 0)
(0.134579 0 0)
(0.134584 0 0)
(0.1346 0 0)
(0.134603 0 0)
(0.134617 0 0)
(0.134617 0 0)
(0.13463 0 0)
(0.134626 0 0)
(0.13464 0 0)
(0.134631 0 0)
(0.134644 0 0)
(0.134632 0 0)
(0.134644 0 0)
(0.134631 0 0)
(0.134638 0 0)
(0.134627 0 0)
(0.134629 0 0)
(0.134621 0 0)
(0.134624 0 0)
(0.134618 0 0)
(0.134621 0 0)
(0.134611 0 0)
(0.134597 0 0)
(0.134553 0 0)
(0.13449 0 0)
(0.134395 0 0)
(0.134294 0 0)
(0.134186 0 0)
(0.134097 0 0)
(0.134017 0 0)
(0.133961 0 0)
(0.133914 0 0)
(0.133882 0 0)
(0.133853 0 0)
(0.133832 0 0)
(0.13381 0 0)
(0.133793 0 0)
(0.133772 0 0)
(0.133754 0 0)
(0.133733 0 0)
(0.133714 0 0)
(0.133691 0 0)
(0.13367 0 0)
(0.133647 0 0)
(0.133624 0 0)
(0.133599 0 0)
(0.133575 0 0)
(0.133549 0 0)
(0.133524 0 0)
(0.133496 0 0)
(0.13347 0 0)
(0.133441 0 0)
(0.133414 0 0)
(0.133385 0 0)
(0.133356 0 0)
(0.133326 0 0)
(0.133296 0 0)
(0.133266 0 0)
(0.133236 0 0)
(0.133205 0 0)
(0.133174 0 0)
(0.133143 0 0)
(0.133112 0 0)
(0.13308 0 0)
(0.133049 0 0)
(0.133017 0 0)
(0.132986 0 0)
(0.132954 0 0)
(0.132923 0 0)
(0.132891 0 0)
(0.13286 0 0)
(0.132829 0 0)
(0.132798 0 0)
(0.132768 0 0)
(0.132737 0 0)
(0.132707 0 0)
(0.132677 0 0)
(0.132648 0 0)
(0.132619 0 0)
(0.13259 0 0)
(0.132561 0 0)
(0.132534 0 0)
(0.132506 0 0)
(0.132479 0 0)
(0.132452 0 0)
(0.132426 0 0)
(0.132401 0 0)
(0.132376 0 0)
(0.132351 0 0)
(0.132327 0 0)
(0.132304 0 0)
(0.132281 0 0)
(0.132259 0 0)
(0.132237 0 0)
(0.132216 0 0)
(0.132195 0 0)
(0.132175 0 0)
(0.132156 0 0)
(0.132137 0 0)
(0.132119 0 0)
(0.132101 0 0)
(0.132084 0 0)
(0.132067 0 0)
(0.132051 0 0)
(0.132036 0 0)
(0.132021 0 0)
(0.132007 0 0)
(0.131993 0 0)
(0.13198 0 0)
(0.131967 0 0)
(0.131955 0 0)
(0.131943 0 0)
(0.131932 0 0)
(0.131921 0 0)
(0.131911 0 0)
(0.131901 0 0)
(0.131892 0 0)
(0.131883 0 0)
(0.131874 0 0)
(0.131866 0 0)
(0.131858 0 0)
(0.131851 0 0)
(0.131844 0 0)
(0.131838 0 0)
(0.131831 0 0)
(0.131825 0 0)
(0.13182 0 0)
(0.131814 0 0)
(0.131809 0 0)
(0.131805 0 0)
(0.1318 0 0)
(0.131796 0 0)
(0.131792 0 0)
(0.131788 0 0)
(0.131785 0 0)
(0.131781 0 0)
(0.131778 0 0)
(0.131775 0 0)
(0.131773 0 0)
(0.13177 0 0)
(0.131768 0 0)
(0.131765 0 0)
(0.131763 0 0)
(0.131761 0 0)
(0.13176 0 0)
(0.131758 0 0)
(0.131756 0 0)
(0.131755 0 0)
(0.131754 0 0)
(0.131752 0 0)
(0.131751 0 0)
(0.13175 0 0)
(0.131749 0 0)
(0.131748 0 0)
(0.131747 0 0)
(0.131746 0 0)
(0.131746 0 0)
(0.131745 0 0)
(0.131744 0 0)
(0.131744 0 0)
(0.131743 0 0)
(0.131743 0 0)
(0.131742 0 0)
(0.131742 0 0)
(0.131742 0 0)
(0.131741 0 0)
(0.131741 0 0)
(0.131741 0 0)
(0.13174 0 0)
(0.13174 0 0)
(0.13174 0 0)
(0.13174 0 0)
(0.13174 0 0)
(0.131739 0 0)
(0.131739 0 0)
(0.131739 0 0)
(0.131739 0 0)
(0.131739 0 0)
(0.131739 0 0)
(0.131739 0 0)
(0.131739 0 0)
(0.131739 0 0)
(0.131739 0 0)
(0.131738 0 0)
(0.131738 0 0)
(0.131738 0 0)
(0.131738 0 0)
(0.131738 0 0)
(0.131738 0 0)
(0.131738 0 0)
(0.131738 0 0)
(0.131738 0 0)
(0.131738 0 0)
(0.131738 0 0)
(0.131738 0 0)
(0.131738 0 0)
(0.131738 0 0)
(0.131738 0 0)
(0.131738 0 0)
(0.131738 0 0)
(0.131738 0 0)
(0.131738 0 0)
(0.131738 0 0)
(0.131738 0 0)
(0.131738 0 0)
(0.131738 0 0)
(0.131738 0 0)
(0.131738 0 0)
(0.131738 0 0)
(0.131738 0 0)
(0.131738 0 0)
(0.131738 0 0)
(0.131738 0 0)
(0.131738 0 0)
(0.131738 0 0)
(0.131738 0 0)
(0.131738 0 0)
(0.131738 0 0)
(0.131738 0 0)
(0.131738 0 0)
(0.131738 0 0)
(0.131738 0 0)
(0.131738 0 0)
(0.131738 0 0)
(0.131738 0 0)
(0.131738 0 0)
(0.131738 0 0)
(0.131738 0 0)
(0.131738 0 0)
(0.131738 0 0)
(0.131738 0 0)
(0.131738 0 0)
(0.131738 0 0)
(0.131738 0 0)
(0.131738 0 0)
(0.131738 0 0)
(0.131738 0 0)
(0.131738 0 0)
(0.131738 0 0)
(0.131738 0 0)
(0.131738 0 0)
(0.131738 0 0)
(0.131738 0 0)
(0.131738 0 0)
(0.131738 0 0)
(0.131738 0 0)
(0.131738 0 0)
(0.131738 0 0)
(0.131738 0 0)
(0.131738 0 0)
(0.131738 0 0)
(0.131738 0 0)
(0.131738 0 0)
(0.131738 0 0)
(0.131738 0 0)
(0.131738 0 0)
(0.131738 0 0)
(0.131738 0 0)
(0.131738 0 0)
(0.131738 0 0)
(0.131738 0 0)
(0.131738 0 0)
(0.131738 0 0)
(0.131738 0 0)
(0.131738 0 0)
(0.131738 0 0)
(0.131738 0 0)
(0.131738 0 0)
(0.131738 0 0)
(0.131738 0 0)
(0.131738 0 0)
(0.131738 0 0)
(0.131738 0 0)
(0.131738 0 0)
(0.131738 0 0)
(0.131738 0 0)
(0.131738 0 0)
(0.131738 0 0)
(0.131738 0 0)
(0.131738 0 0)
(0.131738 0 0)
(0.131738 0 0)
(0.131738 0 0)
(0.131738 0 0)
(0.131738 0 0)
(0.131738 0 0)
(0.131738 0 0)
(0.131738 0 0)
(0.131738 0 0)
(0.131738 0 0)
(0.131738 0 0)
(0.131738 0 0)
(0.131738 0 0)
(0.131738 0 0)
(0.131738 0 0)
(0.131738 0 0)
(0.131738 0 0)
(0.131738 0 0)
(0.131738 0 0)
(0.131738 0 0)
(0.131738 0 0)
(0.131738 0 0)
(0.131738 0 0)
(0.131738 0 0)
(0.131738 0 0)
(0.131738 0 0)
(0.131738 0 0)
(0.131738 0 0)
(0.131738 0 0)
(0.131738 0 0)
(0.131738 0 0)
(0.131738 0 0)
(0.131738 0 0)
(0.131738 0 0)
(0.131738 0 0)
(0.131738 0 0)
(0.131738 0 0)
(0.131738 0 0)
(0.131738 0 0)
(0.131738 0 0)
(0.131738 0 0)
(0.131738 0 0)
(0.131738 0 0)
(0.131738 0 0)
(0.131738 0 0)
(0.131738 0 0)
(0.131738 0 0)
(0.131738 0 0)
(0.131738 0 0)
(0.131738 0 0)
(0.131738 0 0)
(0.131738 0 0)
(0.131738 0 0)
(0.131738 0 0)
(0.131738 0 0)
(0.131738 0 0)
(0.131738 0 0)
(0.131738 0 0)
(0.131738 0 0)
(0.131738 0 0)
(0.131738 0 0)
(0.131738 0 0)
(0.131738 0 0)
(0.131738 0 0)
(0.131738 0 0)
(0.131738 0 0)
(0.131738 0 0)
(0.131738 0 0)
(0.131738 0 0)
(0.131738 0 0)
(0.131738 0 0)
(0.131738 0 0)
(0.131738 0 0)
(0.131738 0 0)
(0.131738 0 0)
(0.131738 0 0)
(0.131738 0 0)
(0.131738 0 0)
(0.131738 0 0)
(0.131738 0 0)
(0.131738 0 0)
(0.131738 0 0)
(0.131738 0 0)
(0.131738 0 0)
(0.131738 0 0)
(0.131738 0 0)
(0.131738 0 0)
(0.131738 0 0)
(0.131738 0 0)
(0.131738 0 0)
(0.131738 0 0)
(0.131738 0 0)
(0.131738 0 0)
(0.131738 0 0)
(0.131738 0 0)
(0.131738 0 0)
(0.131738 0 0)
(0.131738 0 0)
(0.131738 0 0)
(0.131738 0 0)
(0.131738 0 0)
(0.131738 0 0)
(0.131738 0 0)
(0.131738 0 0)
(0.131738 0 0)
(0.131738 0 0)
(0.131738 0 0)
(0.131738 0 0)
(0.131738 0 0)
(0.131738 0 0)
(0.131738 0 0)
(0.131738 0 0)
(0.131738 0 0)
(0.131738 0 0)
(0.131738 0 0)
(0.131738 0 0)
(0.131738 0 0)
(0.131738 0 0)
(0.131738 0 0)
(0.131738 0 0)
(0.131738 0 0)
(0.131738 0 0)
(0.131738 0 0)
(0.131738 0 0)
(0.131738 0 0)
(0.131738 0 0)
(0.131738 0 0)
(0.131738 0 0)
(0.131738 0 0)
(0.131738 0 0)
(0.131738 0 0)
(0.131738 0 0)
(0.131738 0 0)
(0.131738 0 0)
(0.131738 0 0)
(0.131738 0 0)
(0.131738 0 0)
(0.131738 0 0)
(0.131738 0 0)
(0.131738 0 0)
(0.131738 0 0)
(0.131738 0 0)
(0.131738 0 0)
(0.131738 0 0)
(0.131738 0 0)
(0.131738 0 0)
(0.131738 0 0)
(0.131738 0 0)
(0.131738 0 0)
(0.131738 0 0)
(0.131738 0 0)
(0.131738 0 0)
(0.131738 0 0)
(0.131738 0 0)
(0.131738 0 0)
(0.131738 0 0)
(0.131738 0 0)
(0.131738 0 0)
(0.131738 0 0)
(0.131738 0 0)
(0.131738 0 0)
(0.131738 0 0)
(0.131738 0 0)
(0.131738 0 0)
(0.131738 0 0)
(0.131738 0 0)
(0.131738 0 0)
(0.131738 0 0)
(0.131738 0 0)
(0.131738 0 0)
(0.131738 0 0)
(0.131738 0 0)
(0.131738 0 0)
(0.131738 0 0)
(0.131738 0 0)
(0.131738 0 0)
(0.131738 0 0)
(0.131738 0 0)
(0.131738 0 0)
(0.131738 0 0)
(0.131738 0 0)
(0.131738 0 0)
(0.131738 0 0)
(0.131738 0 0)
(0.131738 0 0)
(0.131738 0 0)
(0.131738 0 0)
(0.131738 0 0)
(0.131738 0 0)
(0.131738 0 0)
(0.131738 0 0)
(0.131738 0 0)
(0.131738 0 0)
(0.131738 0 0)
(0.131738 0 0)
(0.131738 0 0)
(0.131738 0 0)
(0.131738 0 0)
(0.131738 0 0)
(0.131738 0 0)
(0.131738 0 0)
(0.131738 0 0)
(0.131738 0 0)
(0.131738 0 0)
(0.131738 0 0)
(0.131738 0 0)
(0.131738 0 0)
(0.131738 0 0)
(0.131738 0 0)
(0.131738 0 0)
(0.131738 0 0)
(0.131738 0 0)
(0.131738 0 0)
(0.131738 0 0)
(0.131738 0 0)
(0.131738 0 0)
(0.131738 0 0)
(0.131738 0 0)
(0.131738 0 0)
(0.131738 0 0)
(0.131738 0 0)
(0.131738 0 0)
(0.131738 0 0)
(0.131738 0 0)
(0.131738 0 0)
(0.131738 0 0)
(0.131738 0 0)
(0.131738 0 0)
(0.131738 0 0)
(0.131738 0 0)
(0.131738 0 0)
(0.131738 0 0)
(0.131738 0 0)
(0.131738 0 0)
(0.131738 0 0)
(0.131738 0 0)
(0.131738 0 0)
(0.131738 0 0)
(0.131738 0 0)
(0.131738 0 0)
(0.131738 0 0)
(0.131738 0 0)
(0.131738 0 0)
(0.131738 0 0)
(0.131738 0 0)
(0.131738 0 0)
(0.131738 0 0)
(0.131738 0 0)
(0.131738 0 0)
(0.131738 0 0)
(0.131738 0 0)
(0.131738 0 0)
(0.131738 0 0)
(0.131738 0 0)
(0.131738 0 0)
(0.131738 0 0)
(0.131738 0 0)
(0.131738 0 0)
(0.131738 0 0)
(0.131738 0 0)
(0.131738 0 0)
(0.131738 0 0)
(0.131738 0 0)
(0.131738 0 0)
(0.131738 0 0)
(0.131738 0 0)
(0.131738 0 0)
(0.131738 0 0)
(0.131738 0 0)
(0.131738 0 0)
(0.131738 0 0)
(0.131738 0 0)
(0.131738 0 0)
(0.131738 0 0)
(0.131738 0 0)
(0.131738 0 0)
(0.131738 0 0)
(0.131738 0 0)
(0.131738 0 0)
(0.131738 0 0)
(0.131738 0 0)
(0.131738 0 0)
(0.131738 0 0)
(0.131738 0 0)
(0.131738 0 0)
(0.131738 0 0)
(0.131738 0 0)
(0.131738 0 0)
(0.131738 0 0)
(0.131738 0 0)
(0.131738 0 0)
(0.131738 0 0)
(0.131738 0 0)
(0.131738 0 0)
(0.131738 0 0)
(0.131738 0 0)
(0.131738 0 0)
(0.131738 0 0)
(0.131738 0 0)
(0.131738 0 0)
(0.131738 0 0)
(0.131738 0 0)
(0.131738 0 0)
(0.131738 0 0)
(0.131738 0 0)
(0.131738 0 0)
(0.131738 0 0)
(0.131738 0 0)
(0.131738 0 0)
(0.131738 0 0)
(0.131738 0 0)
(0.131738 0 0)
(0.131738 0 0)
(0.131738 0 0)
(0.131738 0 0)
(0.131738 0 0)
(0.131738 0 0)
(0.131738 0 0)
(0.131738 0 0)
(0.131738 0 0)
(0.131738 0 0)
(0.131738 0 0)
(0.131738 0 0)
(0.131738 0 0)
(0.131738 0 0)
(0.131738 0 0)
(0.131738 0 0)
(0.131738 0 0)
(0.131738 0 0)
(0.131738 0 0)
(0.131738 0 0)
(0.131738 0 0)
(0.131738 0 0)
(0.131738 0 0)
(0.131738 0 0)
(0.131738 0 0)
(0.131738 0 0)
(0.131738 0 0)
(0.131738 0 0)
(0.131738 0 0)
(0.131738 0 0)
(0.131738 0 0)
(0.131738 0 0)
(0.131738 0 0)
(0.131738 0 0)
(0.131738 0 0)
(0.131738 0 0)
(0.131738 0 0)
(0.131738 0 0)
(0.131738 0 0)
(0.131738 0 0)
(0.131738 0 0)
(0.131738 0 0)
(0.131738 0 0)
(0.131738 0 0)
(0.131738 0 0)
(0.131738 0 0)
(0.131738 0 0)
(0.131738 0 0)
(0.131738 0 0)
(0.131738 0 0)
(0.131738 0 0)
(0.131738 0 0)
(0.131738 0 0)
(0.131738 0 0)
(0.131738 0 0)
(0.131738 0 0)
(0.131738 0 0)
(0.131738 0 0)
(0.131738 0 0)
(0.131738 0 0)
(0.131738 0 0)
(0.131738 0 0)
(0.131738 0 0)
(0.131738 0 0)
(0.131738 0 0)
(0.131738 0 0)
(0.131738 0 0)
(0.131738 0 0)
(0.131738 0 0)
(0.131738 0 0)
(0.131738 0 0)
(0.131738 0 0)
(0.131738 0 0)
(0.131738 0 0)
(0.131738 0 0)
(0.131738 0 0)
(0.131738 0 0)
(0.131738 0 0)
(0.131738 0 0)
(0.131738 0 0)
(0.131738 0 0)
(0.131738 0 0)
(0.131738 0 0)
(0.131738 0 0)
(0.131738 0 0)
(0.131738 0 0)
(0.131738 0 0)
(0.131738 0 0)
(0.131738 0 0)
(0.131738 0 0)
(0.131738 0 0)
(0.131738 0 0)
(0.131738 0 0)
(0.131738 0 0)
(0.131738 0 0)
(0.131738 0 0)
(0.131738 0 0)
(0.131738 0 0)
(0.131738 0 0)
(0.131738 0 0)
(0.131738 0 0)
(0.131738 0 0)
(0.131738 0 0)
(0.131738 0 0)
(0.131738 0 0)
(0.131738 0 0)
(0.131738 0 0)
(0.131738 0 0)
(0.131738 0 0)
(0.131738 0 0)
(0.131738 0 0)
(0.131738 0 0)
(0.131738 0 0)
(0.131738 0 0)
(0.131738 0 0)
(0.131738 0 0)
(0.131738 0 0)
(0.131738 0 0)
(0.131738 0 0)
(0.131738 0 0)
(0.131738 0 0)
(0.131738 0 0)
(0.131738 0 0)
(0.131738 0 0)
(0.131738 0 0)
(0.131738 0 0)
(0.131738 0 0)
(0.131738 0 0)
(0.131738 0 0)
(0.131738 0 0)
(0.131738 0 0)
(0.131738 0 0)
(0.131738 0 0)
(0.131738 0 0)
(0.131738 0 0)
(0.131738 0 0)
(0.131738 0 0)
(0.131738 0 0)
(0.131738 0 0)
(0.131738 0 0)
(0.131738 0 0)
(0.131738 0 0)
(0.131738 0 0)
(0.131738 0 0)
(0.131738 0 0)
(0.131738 0 0)
(0.131738 0 0)
(0.131738 0 0)
(0.131738 0 0)
(0.131738 0 0)
(0.131738 0 0)
(0.131738 0 0)
(0.131738 0 0)
(0.131738 0 0)
(0.131738 0 0)
(0.131738 0 0)
(0.131738 0 0)
(0.131738 0 0)
(0.131738 0 0)
(0.131738 0 0)
(0.131738 0 0)
(0.131738 0 0)
(0.131738 0 0)
(0.131738 0 0)
(0.131738 0 0)
(0.131738 0 0)
(0.131738 0 0)
(0.131738 0 0)
(0.131738 0 0)
(0.131738 0 0)
(0.131738 0 0)
(0.131738 0 0)
(0.131738 0 0)
(0.131738 0 0)
(0.131738 0 0)
(0.131738 0 0)
(0.131738 0 0)
(0.131738 0 0)
(0.131738 0 0)
(0.131738 0 0)
(0.131738 0 0)
(0.131737 0 0)
(0.131739 0 0)
(0.131737 0 0)
(0.131739 0 0)
(0.131737 0 0)
(0.131739 0 0)
(0.131737 0 0)
(0.131739 0 0)
(0.131737 0 0)
(0.131739 0 0)
(0.131737 0 0)
(0.131739 0 0)
(0.131736 0 0)
(0.13174 0 0)
(0.131736 0 0)
(0.13174 0 0)
(0.131736 0 0)
(0.13174 0 0)
(0.131735 0 0)
(0.131741 0 0)
(0.131735 0 0)
(0.131741 0 0)
(0.131734 0 0)
(0.131741 0 0)
(0.131734 0 0)
(0.131742 0 0)
(0.131733 0 0)
(0.131742 0 0)
(0.131732 0 0)
(0.131743 0 0)
(0.131731 0 0)
(0.131744 0 0)
(0.13173 0 0)
(0.131744 0 0)
(0.131729 0 0)
(0.131745 0 0)
(0.131728 0 0)
(0.131746 0 0)
(0.131727 0 0)
(0.131747 0 0)
(0.131725 0 0)
(0.131748 0 0)
(0.131723 0 0)
(0.131749 0 0)
(0.131721 0 0)
(0.13175 0 0)
(0.131719 0 0)
)
;

boundaryField
{
    topWall
    {
        type            empty;
    }
    bottomWall
    {
        type            empty;
    }
    leftAndRight_half1
    {
        type            cyclic;
    }
    leftAndRight_half0
    {
        type            cyclic;
    }
    frontAndBack
    {
        type            empty;
    }
}


// ************************************************************************* //
