/*--------------------------------*- C++ -*----------------------------------*\
  =========                 |
  \\      /  F ield         | OpenFOAM: The Open Source CFD Toolbox
   \\    /   O peration     | Website:  https://openfoam.org
    \\  /    A nd           | Version:  9
     \\/     M anipulation  |
\*---------------------------------------------------------------------------*/
FoamFile
{
    format      ascii;
    class       volScalarField;
    location    "0";
    object      f_0;
}
// * * * * * * * * * * * * * * * * * * * * * * * * * * * * * * * * * * * * * //

dimensions      [1 -3 0 0 0 0 0];

internalField   uniform 444.444;

boundaryField
{
    movingWall
    {
        type            lbmWall;
        wallVelocity    (1 0 0);
        index           0;
        value           nonuniform List<scalar> 
200
(
6.91585e-310
6.91585e-310
4.6493e-310
4.6493e-310
9.73761e-101
4.47594e-91
4.47594e-91
4.47594e-91
4.47594e-91
9.15903e-259
1.03879e-13
6.01347e-154
6.01347e-154
5.98195e-154
6.01347e-154
1.44157e+214
6.01347e-154
6.19962e+223
3.67293e+194
2.67768e+92
3.03072e+30
3.49157e+228
8.4607e-153
1.42456e+73
4.82407e+228
3.35631e-152
2.16637e-27
3.92573e-27
4.25109e+228
2.46163e-154
1.06255e-81
5.96086e+175
6.01347e-154
1.13817e+243
1.55287e-33
8.17708e+136
4.34456e-153
3.99196e+252
2.40628e+135
4.47594e-91
4.47594e-91
4.47594e-91
4.47594e-91
4.47594e-91
4.47594e-91
4.47594e-91
4.47594e-91
4.47594e-91
2.59316e+29
1.39336e-258
4.19314e+228
6.01347e-154
1.6816e-22
1.99549e+161
6.01347e-154
1.17073e+214
1.35151e-22
9.48695e+170
6.01392e-154
5.98158e-154
4.44388e+252
3.62127e+151
1.1629e-153
9.7427e-154
9.7427e-154
9.7427e-154
9.7427e-154
9.7427e-154
9.7427e-154
9.7427e-154
9.7427e-154
9.7427e-154
4.79345e+199
1.064e+248
6.14099e-71
1.20271e-153
2.22466e-259
2.14028e+161
6.11296e-154
1.62691e+219
3.21866e-57
6.0267e+175
5.61858e+175
4.44713e+217
1.16759e+214
3.52843e-258
6.01347e-154
6.01347e-154
6.01347e-154
1.8809e-22
6.01347e-154
1.43665e+214
6.01398e-154
2.68214e-110
6.01347e-154
2.91127e-152
6.01347e-154
6.01335e-154
1.17567e+214
6.01347e-154
9.08895e+223
1.75701e-152
1.36726e+161
1.55793e-76
9.33997e-67
1.3164e-259
5.20459e-90
1.51765e-47
1.3164e-259
5.20652e-90
5.63488e-62
9.1644e-72
4.01585e-57
2.40583e-57
1.42499e-71
4.01585e-57
2.40583e-57
1.42499e-71
3.94371e-62
3.42633e-86
8.3186e-72
3.05748e-57
2.24118e-48
5.20748e-90
7.39988e-38
3.3761e-57
9.05798e-43
3.42631e-86
5.08075e-67
4.17822e-62
1.64287e-259
2.95196e+179
1.03316e-47
3.30673e-33
1.58848e-47
3.82846e-86
3.32971e-62
1.79821e-52
9.63153e-39
8.3186e-72
2.90004e-57
5.21739e-58
1.21246e-99
2.00253e-52
7.86059e-67
8.61485e-43
2.90809e-33
8.15099e-43
3.11851e-33
3.6274e-86
8.31858e-72
8.23006e-67
3.41825e-53
1.21224e-99
9.15785e-72
3.3761e-57
7.7215e-43
3.42631e-86
3.57281e-62
2.00494e-76
5.21971e-58
5.20652e-90
4.84958e-33
7.86202e-67
5.35193e-38
4.02955e-86
2.83067e-33
4.08598e-33
4.02953e-86
2.83067e-33
4.08598e-33
4.02953e-86
2.83067e-33
4.08598e-33
4.02953e-86
2.83067e-33
4.08598e-33
4.02953e-86
2.83067e-33
1.08801e-71
3.42633e-86
5.45167e-67
6.12386e-62
1.96711e-259
3.76113e+179
1.0329e-47
1.47931e-259
4.08532e+179
1.30454e-76
1.7934e-52
7.27132e-43
1.85386e-72
5.20173e-90
1.65609e-47
1.31831e-259
2.95385e+179
2.90885e-33
1.7934e-52
5.64353e-38
7.95991e-63
)
;
    }
    boundaryWall
    {
        type            lbmWall;
        wallVelocity    (0 0 0);
        index           0;
        value           nonuniform List<scalar> 
600
(
6.91585e-310
6.91585e-310
4.6493e-310
4.6493e-310
5.20747e-90
3.69288e-57
1.64287e-259
5.20747e-90
3.69288e-57
1.64287e-259
5.20747e-90
3.69288e-57
1.64287e-259
5.20747e-90
4.4644e-33
4.85182e-33
1.21179e-99
2.73701e-57
1.3996e-259
2.79049e+179
5.60006e-67
1.8978e-52
6.01035e-67
2.24018e-48
5.20654e-90
8.22718e-67
3.31182e-33
1.1766e-47
3.82848e-86
7.75259e-72
4.17822e-62
1.64287e-259
7.75262e-72
4.17822e-62
1.64287e-259
3.76113e+179
8.54944e-72
1.7934e-52
3.05748e-57
1.85386e-72
5.08075e-67
4.17822e-62
1.64287e-259
3.43443e+179
1.30403e-76
7.86059e-67
2.52783e-52
2.40521e-57
1.7934e-52
7.26083e-43
2.24252e-48
5.20748e-90
1.72292e-47
1.88739e-259
3.76113e+179
5.59934e-67
1.7934e-52
3.05748e-57
1.85386e-72
1.21112e-99
9.15785e-72
3.3761e-57
6.00892e-67
3.62739e-86
7.75262e-72
4.17822e-62
1.64287e-259
3.76113e+179
8.54944e-72
1.7934e-52
3.05748e-57
1.85386e-72
5.08075e-67
4.17822e-62
1.64287e-259
3.43443e+179
1.30403e-76
7.86059e-67
3.85716e-57
2.40521e-57
1.7934e-52
7.26083e-43
2.24252e-48
5.20748e-90
1.72292e-47
1.88739e-259
3.76113e+179
5.59934e-67
1.7934e-52
3.05748e-57
1.85386e-72
1.21112e-99
9.15785e-72
3.3761e-57
1.6561e-47
4.63277e-86
7.7526e-72
3.05748e-57
2.24118e-48
5.20748e-90
9.72383e-72
3.3761e-57
9.05798e-43
3.82847e-86
5.45166e-67
1.3816e-47
1.85387e-72
8.3186e-72
1.24556e-47
1.72258e-259
3.11024e+179
2.4049e-57
1.48346e-76
1.91689e-76
1.85413e-72
5.20363e-90
7.48534e-67
1.69053e-52
3.94085e-62
3.42632e-86
8.31858e-72
9.51338e-43
1.64287e-259
4.08596e+179
2.82701e-77
2.82701e-77
2.82701e-77
2.82701e-77
2.82701e-77
2.82701e-77
2.82701e-77
2.82701e-77
2.82701e-77
2.82701e-77
2.82701e-77
2.82701e-77
2.82701e-77
2.82701e-77
2.82701e-77
2.44546e-154
6.01335e-154
9.27777e+242
5.98186e-154
6.01347e-154
4.27256e+180
6.01347e-154
1.41334e+113
6.01335e-154
1.17594e+214
5.81677e+252
1.20502e-153
5.98158e-154
7.26576e+223
6.01347e-154
1.33387e-23
6.01347e-154
6.11447e-154
6.01347e-154
2.16122e+185
8.8947e+252
6.84729e-08
9.77202e-260
5.20459e-90
9.33997e-67
1.3164e-259
5.20652e-90
1.51765e-47
1.3164e-259
1.30401e-259
1.30401e-259
1.30401e-259
1.30401e-259
1.30401e-259
1.30401e-259
1.30401e-259
1.30401e-259
1.30401e-259
1.30401e-259
1.30401e-259
1.30401e-259
1.30401e-259
1.30401e-259
1.30401e-259
1.30401e-259
1.30401e-259
1.30401e-259
1.30401e-259
1.30401e-259
1.30401e-259
1.30401e-259
1.30401e-259
1.30401e-259
1.30401e-259
1.30401e-259
1.30401e-259
1.30401e-259
1.30401e-259
1.30401e-259
1.30401e-259
1.30401e-259
1.30401e-259
1.30401e-259
1.30401e-259
1.30401e-259
1.30401e-259
1.30401e-259
1.30401e-259
1.30401e-259
1.30401e-259
1.30401e-259
1.30401e-259
1.30401e-259
1.30401e-259
1.30401e-259
1.30401e-259
1.30401e-259
1.30401e-259
1.30401e-259
1.30401e-259
1.30401e-259
1.30401e-259
1.30401e-259
1.30401e-259
1.30401e-259
1.30401e-259
1.30401e-259
1.30401e-259
1.30401e-259
1.30401e-259
1.30401e-259
1.30401e-259
1.30401e-259
1.30401e-259
1.30401e-259
1.30401e-259
1.30401e-259
1.30401e-259
1.30401e-259
1.30401e-259
1.30401e-259
1.30401e-259
1.30401e-259
1.30401e-259
1.30401e-259
1.30401e-259
1.30401e-259
1.30401e-259
1.30401e-259
1.30401e-259
1.30401e-259
1.30401e-259
1.30401e-259
1.30401e-259
1.30401e-259
1.30401e-259
1.30401e-259
1.30401e-259
1.30401e-259
1.30401e-259
1.30401e-259
1.30401e-259
1.30401e-259
1.30401e-259
1.30401e-259
1.30401e-259
1.30401e-259
1.30401e-259
1.30401e-259
1.30401e-259
1.30401e-259
1.30401e-259
1.30401e-259
1.30401e-259
1.30401e-259
1.30401e-259
1.30401e-259
1.30401e-259
1.30401e-259
1.30401e-259
1.30401e-259
1.30401e-259
1.30401e-259
1.30401e-259
1.30401e-259
1.30401e-259
1.30401e-259
1.30401e-259
1.30401e-259
1.30401e-259
1.30401e-259
1.30401e-259
1.30401e-259
1.30401e-259
1.30401e-259
1.30401e-259
1.30401e-259
1.30401e-259
1.30401e-259
1.30401e-259
1.30401e-259
1.30401e-259
1.30401e-259
1.30401e-259
1.30401e-259
1.30401e-259
1.30401e-259
1.30401e-259
1.30401e-259
1.30401e-259
1.30401e-259
1.30401e-259
1.30401e-259
1.30401e-259
1.30401e-259
1.30401e-259
1.30401e-259
1.30401e-259
6.01347e-154
1.18026e+243
3.23224e+160
1.19894e+285
6.01347e-154
6.01386e-154
6.01347e-154
2.23364e-259
3.77759e-258
1.42602e-105
1.42603e-105
1.42603e-105
1.42603e-105
1.42603e-105
1.42603e-105
1.42603e-105
1.42603e-105
1.42603e-105
1.06507e-81
1.28803e-320
0
0
0
0
0
0
0
0
0
0
0
0
0
0
0
0
0
0
0
0
0
0
0
0
0
0
0
0
0
0
0
0
0
0
0
0
0
0
0
0
0
0
0
0
0
0
0
0
0
0
0
0
0
0
0
0
0
0
0
0
0
0
0
0
0
0
0
0
0
0
0
0
0
0
0
0
0
0
0
0
0
0
0
0
0
0
0
0
0
0
0
0
0
0
0
0
0
0
0
0
0
0
0
0
0
0
0
0
0
0
0
0
0
0
0
0
0
0
0
0
0
0
0
0
0
0
0
0
0
0
0
0
0
0
0
0
0
0
0
0
0
0
0
0
0
0
0
0
0
0
0
0
0
0
0
0
0
0
0
0
0
0
0
0
0
0
0
0
0
0
0
0
0
0
0
0
0
0
0
0
0
0
0
0
0
0
0
0
0
0
0
0
0
0
0
0
0
0
0
0
0
0
0
0
0
0
0
0
0
0
0
0
0
0
0
0
0
0
0
0
0
0
0
0
0
0
0
0
0
0
0
0
0
0
0
0
0
0
0
0
0
0
0
0
0
0
0
0
0
0
0
0
0
0
0
0
0
0
0
0
0
0
0
)
;
    }
    frontAndBack
    {
        type            empty;
    }
}


// ************************************************************************* //
