/*--------------------------------*- C++ -*----------------------------------*\
  =========                 |
  \\      /  F ield         | OpenFOAM: The Open Source CFD Toolbox
   \\    /   O peration     | Website:  https://openfoam.org
    \\  /    A nd           | Version:  9
     \\/     M anipulation  |
\*---------------------------------------------------------------------------*/
FoamFile
{
    format      ascii;
    class       volScalarField;
    location    "0";
    object      f_1;
}
// * * * * * * * * * * * * * * * * * * * * * * * * * * * * * * * * * * * * * //

dimensions      [1 -3 0 0 0 0 0];

internalField   uniform 111.111;

boundaryField
{
    movingWall
    {
        type            lbmWall;
        wallVelocity    (1 0 0);
        index           1;
        value           nonuniform List<scalar> 
200
(
6.91585e-310
6.91585e-310
4.6493e-310
4.6493e-310
0
0
0
0
0
0
0
0
0
0
0
0
0
0
0
0
0
0
0
0
0
0
0
0
0
0
0
0
0
0
0
0
0
0
0
0
0
0
0
0
0
0
0
0
0
0
0
0
0
0
0
0
0
0
0
0
0
0
0
0
0
0
0
0
0
0
0
0
0
0
0
0
0
0
0
0
0
0
0
0
0
0
0
0
0
0
0
0
0
0
0
0
0
0
0
0
0
0
0
0
0
0
0
0
0
0
0
0
0
0
0
0
0
0
0
0
0
0
0
0
0
0
0
0
0
0
0
0
0
0
0
0
0
0
0
0
0
0
0
0
0
0
0
0
0
0
0
0
0
0
0
0
0
0
0
0
0
0
0
0
0
0
0
0
0
0
0
0
0
0
0
0
0
0
0
0
0
0
0
0
0
0
0
0
0
0
0
0
0
0
0
0
0
0
0
0
)
;
    }
    boundaryWall
    {
        type            lbmWall;
        wallVelocity    (0 0 0);
        index           1;
        value           nonuniform List<scalar> 
600
(
6.91585e-310
6.91585e-310
4.6493e-310
4.6493e-310
5.63864e-62
1.85358e-72
3.5728e-62
5.63864e-62
1.85358e-72
3.5728e-62
5.63864e-62
1.85358e-72
3.5728e-62
5.63864e-62
1.85358e-72
3.5728e-62
5.63864e-62
1.85358e-72
3.5728e-62
5.63864e-62
1.85358e-72
3.5728e-62
5.63864e-62
1.85358e-72
3.5728e-62
5.63864e-62
1.85358e-72
3.5728e-62
5.63864e-62
1.85358e-72
3.5728e-62
5.63864e-62
1.85358e-72
3.5728e-62
5.63864e-62
1.85358e-72
3.5728e-62
5.63864e-62
1.85358e-72
3.5728e-62
5.63864e-62
1.85358e-72
3.5728e-62
5.63864e-62
1.85358e-72
3.5728e-62
5.63864e-62
1.85358e-72
3.5728e-62
5.63864e-62
1.85358e-72
3.5728e-62
5.63864e-62
1.85358e-72
3.5728e-62
5.63864e-62
1.85358e-72
3.5728e-62
5.63864e-62
1.85358e-72
3.5728e-62
5.63864e-62
1.85358e-72
3.5728e-62
5.63864e-62
1.85358e-72
3.5728e-62
5.63864e-62
5.44719e-111
5.14942e+294
6.9738e+228
5.21089e+170
3.52843e-258
6.01347e-154
6.01347e-154
6.01347e-154
2.44562e-154
2.69185e-260
1.42603e-105
1.42603e-105
1.42603e-105
1.42603e-105
1.42603e-105
1.42603e-105
1.42603e-105
1.42603e-105
1.42603e-105
2.05083e-81
6.01347e-154
1.8809e-22
6.01347e-154
1.43665e+214
6.01398e-154
2.68214e-110
6.01347e-154
2.91127e-152
6.01347e-154
6.01335e-154
1.17567e+214
6.01347e-154
9.08895e+223
1.75701e-152
1.36726e+161
1.55793e-76
9.33997e-67
1.3164e-259
5.20459e-90
1.51765e-47
1.3164e-259
5.20652e-90
1.30401e-259
1.30401e-259
1.30401e-259
1.30401e-259
1.30401e-259
1.30401e-259
1.30401e-259
1.30401e-259
1.30401e-259
1.30401e-259
1.30401e-259
1.30401e-259
1.30401e-259
1.30401e-259
1.30401e-259
1.30401e-259
1.30401e-259
1.30401e-259
1.30401e-259
1.30401e-259
1.30401e-259
1.30401e-259
1.30401e-259
1.30401e-259
1.30401e-259
1.30401e-259
1.30401e-259
1.30401e-259
1.30401e-259
1.30401e-259
1.30401e-259
1.30401e-259
1.30401e-259
1.30401e-259
1.30401e-259
1.30401e-259
1.30401e-259
1.30401e-259
1.30401e-259
1.30401e-259
1.30401e-259
1.30401e-259
1.30401e-259
1.30401e-259
1.30401e-259
1.30401e-259
1.30401e-259
1.30401e-259
1.30401e-259
2.19829e-259
5.98195e-154
1.43624e+161
2.46345e-154
6.01335e-154
6.32275e+233
6.01347e-154
8.12891e+218
5.98158e-154
3.25124e+161
4.64898e+199
1.04176e-76
2.44551e-154
2.41079e+198
6.01347e-154
4.56335e-72
6.01347e-154
1.28037e-152
6.01347e-154
7.28583e+199
8.84386e+247
9.29434e+242
8.30803e-116
3.27233e+179
2.90922e-33
1.48541e-76
3.59968e+179
1.0333e-47
1.48541e-76
1.25736e-71
4.02953e-86
2.83067e-33
4.08598e-33
4.02953e-86
2.83067e-33
4.08598e-33
5.03492e-86
5.45166e-67
5.63891e-38
2.24084e-48
5.20748e-90
9.15785e-72
3.3761e-57
2.6302e-52
4.4317e-86
8.3186e-72
1.1435e-71
1.6416e-259
3.76113e+179
8.54944e-72
6.73945e-67
3.50821e-33
1.21495e-67
1.21269e-99
1.65713e-76
7.95752e-63
1.21246e-99
1.38081e-47
1.56157e-259
3.59968e+179
8.96904e-67
5.34732e-38
1.08735e-71
3.62739e-86
5.45168e-67
9.5047e-43
4.02955e-86
5.08076e-67
1.25669e-71
1.64287e-259
3.43758e+179
1.72292e-47
2.42136e-52
9.05798e-43
3.42631e-86
5.08075e-67
7.86639e-67
9.62436e-39
1.21268e-99
3.05563e-57
5.15151e-62
1.72373e-47
3.62739e-86
7.75262e-72
2.42259e-52
5.21584e-58
5.20462e-90
2.42259e-52
5.21584e-58
5.20462e-90
2.42259e-52
5.21584e-58
5.20462e-90
2.42259e-52
5.21584e-58
5.20462e-90
2.42259e-52
1.21441e-67
1.21223e-99
6.12576e-62
1.96806e-259
3.27296e+179
1.30454e-76
1.7934e-52
1.17821e-47
2.90734e-33
1.17479e-47
3.05748e-57
1.85386e-72
1.21157e-99
2.00253e-52
1.47931e-259
3.44012e+179
1.30454e-76
1.7934e-52
1.79781e-52
5.21816e-58
1.21269e-99
8.22719e-67
1.19943e-71
4.08405e+179
6.77619e-43
3.3761e-57
3.75987e+179
6.77619e-43
3.3761e-57
3.75987e+179
6.77619e-43
3.3761e-57
3.75987e+179
6.77619e-43
3.3761e-57
3.75987e+179
6.77619e-43
3.3761e-57
2.10899e-52
3.42633e-86
5.93506e-38
4.85109e-33
5.59934e-67
1.7934e-52
1.38187e-47
1.21585e-67
1.21268e-99
9.72383e-72
3.3761e-57
1.42693e-71
4.02956e-86
5.08075e-67
1.04015e-42
1.31862e-259
3.43632e+179
8.54391e-72
1.5603e-259
3.76113e+179
1.30454e-76
1.7934e-52
3.2168e-57
2.24118e-48
5.20748e-90
1.17553e-47
1.6416e-259
3.76113e+179
1.30387e-76
1.48279e-76
1.58741e-47
4.43169e-86
6.59066e-43
2.21379e-52
1.21495e-67
1.21291e-99
9.15785e-72
3.3761e-57
2.00458e-52
1.30454e-76
1.7934e-52
3.94275e-62
2.24051e-48
5.20748e-90
9.94605e-43
4.90937e-62
2.00457e-52
4.02954e-86
7.75259e-72
9.05971e-43
1.5603e-259
3.76113e+179
1.30454e-76
1.7934e-52
3.2168e-57
2.24118e-48
5.20748e-90
1.17553e-47
1.6416e-259
3.76113e+179
1.30387e-76
1.48279e-76
1.58741e-47
4.43169e-86
6.59066e-43
2.21379e-52
1.21495e-67
1.21291e-99
9.15785e-72
3.3761e-57
2.00458e-52
1.30454e-76
1.7934e-52
3.94275e-62
2.24051e-48
5.20748e-90
9.94605e-43
4.90937e-62
2.00457e-52
4.83385e-86
7.75261e-72
3.31033e-33
2.24018e-48
5.20748e-90
9.15785e-72
3.3761e-57
3.21866e-57
4.4317e-86
8.3186e-72
6.52397e-38
1.21458e-67
1.21291e-99
7.48534e-67
1.72258e-259
3.11024e+179
2.4049e-57
1.48346e-76
1.91689e-76
1.85413e-72
5.20363e-90
7.48534e-67
1.69053e-52
3.94085e-62
3.42632e-86
8.31858e-72
1.24556e-47
1.72258e-259
3.59778e+179
5.59934e-67
1.0854e-71
7.12747e-67
3.42631e-86
1.0854e-71
7.12747e-67
3.42631e-86
1.0854e-71
7.12747e-67
3.42631e-86
1.0854e-71
7.12747e-67
3.42631e-86
1.0854e-71
7.12747e-67
3.42631e-86
1.0854e-71
7.12747e-67
3.42631e-86
1.0854e-71
7.12747e-67
3.42631e-86
1.0854e-71
7.12747e-67
3.42631e-86
1.0854e-71
7.12747e-67
3.42631e-86
1.0854e-71
7.12747e-67
3.42631e-86
1.0854e-71
7.12747e-67
3.42631e-86
1.0854e-71
7.12747e-67
3.42631e-86
1.0854e-71
7.12747e-67
3.42631e-86
1.0854e-71
7.12747e-67
3.42631e-86
1.0854e-71
7.12747e-67
3.42631e-86
1.0854e-71
7.12747e-67
3.42631e-86
1.0854e-71
7.12747e-67
3.42631e-86
1.0854e-71
7.12747e-67
3.42631e-86
1.0854e-71
7.12747e-67
3.42631e-86
1.0854e-71
7.12747e-67
3.42631e-86
1.0854e-71
7.12747e-67
3.42631e-86
1.0854e-71
7.12747e-67
3.42631e-86
1.0854e-71
7.12747e-67
3.42631e-86
1.0854e-71
7.12747e-67
3.42631e-86
1.0854e-71
7.12747e-67
3.42631e-86
1.0854e-71
7.12747e-67
3.42631e-86
1.0854e-71
7.12747e-67
3.42631e-86
1.0854e-71
7.12747e-67
3.42631e-86
1.0854e-71
7.12747e-67
3.42631e-86
1.0854e-71
7.12747e-67
3.42631e-86
1.0854e-71
7.12747e-67
3.42631e-86
1.0854e-71
7.12747e-67
3.42631e-86
1.0854e-71
7.12747e-67
3.42631e-86
1.0854e-71
7.12747e-67
3.42631e-86
1.0854e-71
7.12747e-67
3.42631e-86
1.0854e-71
7.12747e-67
3.42631e-86
1.0854e-71
7.12747e-67
3.42631e-86
1.0854e-71
7.12747e-67
3.42631e-86
1.0854e-71
7.12747e-67
3.42631e-86
1.0854e-71
7.12747e-67
3.42631e-86
1.0854e-71
7.12747e-67
3.42631e-86
1.0854e-71
7.12747e-67
3.42631e-86
1.0854e-71
7.12747e-67
3.42631e-86
1.0854e-71
7.12747e-67
3.42631e-86
1.0854e-71
7.12747e-67
3.42631e-86
1.0854e-71
7.12747e-67
3.42631e-86
1.0854e-71
7.12747e-67
3.42631e-86
1.0854e-71
7.12747e-67
3.42631e-86
1.0854e-71
7.12747e-67
3.42631e-86
1.0854e-71
7.12747e-67
3.42631e-86
1.0854e-71
7.12747e-67
3.42631e-86
1.0854e-71
7.12747e-67
3.42631e-86
1.0854e-71
7.12747e-67
3.42631e-86
1.0854e-71
7.12747e-67
3.42631e-86
1.0854e-71
7.12747e-67
3.42631e-86
1.0854e-71
7.12747e-67
3.42631e-86
1.0854e-71
7.12747e-67
3.42631e-86
1.0854e-71
7.12747e-67
3.42631e-86
1.0854e-71
7.12747e-67
3.42631e-86
1.0854e-71
7.12747e-67
3.42631e-86
1.0854e-71
7.12747e-67
3.42631e-86
1.0854e-71
7.12747e-67
3.42631e-86
1.0854e-71
7.12747e-67
3.42631e-86
1.0854e-71
7.12747e-67
3.42631e-86
1.0854e-71
7.12747e-67
3.42631e-86
1.0854e-71
7.12747e-67
)
;
    }
    frontAndBack
    {
        type            empty;
    }
}


// ************************************************************************* //
