/*--------------------------------*- C++ -*----------------------------------*\
  =========                 |
  \\      /  F ield         | OpenFOAM: The Open Source CFD Toolbox
   \\    /   O peration     | Website:  https://openfoam.org
    \\  /    A nd           | Version:  9
     \\/     M anipulation  |
\*---------------------------------------------------------------------------*/
FoamFile
{
    format      ascii;
    class       volScalarField;
    location    "0";
    object      f_2;
}
// * * * * * * * * * * * * * * * * * * * * * * * * * * * * * * * * * * * * * //

dimensions      [1 -3 0 0 0 0 0];

internalField   uniform 111.111;

boundaryField
{
    movingWall
    {
        type            lbmWall;
        wallVelocity    (1 0 0);
        index           2;
        value           nonuniform List<scalar> 
200
(
6.91585e-310
6.91585e-310
4.6493e-310
4.6493e-310
0
0
0
0
0
0
0
0
0
0
0
0
0
0
0
0
0
0
0
0
0
0
0
0
0
0
0
0
0
0
0
0
0
0
0
0
0
0
0
0
0
0
0
0
0
0
0
0
0
0
0
0
0
0
0
0
0
0
0
0
0
0
0
0
0
0
0
0
0
0
0
0
0
0
0
0
0
0
0
0
0
0
0
0
0
0
0
0
0
0
0
0
0
0
0
0
0
0
0
0
0
0
0
0
0
0
0
0
0
0
0
0
0
0
0
0
0
0
0
0
0
0
0
0
0
0
0
0
0
0
0
0
0
0
0
0
0
0
0
0
0
0
0
0
0
0
0
0
0
0
0
0
0
0
0
0
0
0
0
0
0
0
0
0
0
0
0
0
0
0
0
0
0
0
0
0
0
0
0
0
0
0
0
0
0
0
0
0
0
0
0
0
0
0
0
0
)
;
    }
    boundaryWall
    {
        type            lbmWall;
        wallVelocity    (0 0 0);
        index           2;
        value           nonuniform List<scalar> 
600
(
6.91585e-310
6.91585e-310
4.6493e-310
4.6493e-310
5.63864e-62
1.85358e-72
3.5728e-62
5.63864e-62
1.85358e-72
3.5728e-62
5.63864e-62
1.85358e-72
3.5728e-62
5.63864e-62
1.85358e-72
3.5728e-62
5.63864e-62
1.85358e-72
3.5728e-62
5.63864e-62
1.85358e-72
3.5728e-62
5.63864e-62
1.85358e-72
3.5728e-62
5.63864e-62
1.85358e-72
3.5728e-62
5.63864e-62
1.85358e-72
3.5728e-62
5.63864e-62
1.85358e-72
3.5728e-62
5.63864e-62
1.85358e-72
3.5728e-62
5.63864e-62
1.85358e-72
3.5728e-62
5.63864e-62
1.85358e-72
3.5728e-62
5.63864e-62
1.85358e-72
3.5728e-62
5.63864e-62
1.85358e-72
3.5728e-62
5.63864e-62
1.85358e-72
3.5728e-62
5.63864e-62
1.85358e-72
3.5728e-62
5.63864e-62
1.85358e-72
3.5728e-62
5.63864e-62
1.85358e-72
3.5728e-62
5.63864e-62
1.85358e-72
3.5728e-62
5.63864e-62
1.85358e-72
3.5728e-62
2.44546e-154
6.01335e-154
1.26189e+223
5.98185e-154
6.01347e-154
4.27256e+180
6.01347e-154
7.52737e+252
5.14942e+294
1.1629e-153
1.42603e-105
1.42603e-105
1.42603e-105
1.42603e-105
1.42603e-105
1.42603e-105
1.42603e-105
1.42603e-105
1.42603e-105
8.21781e-72
1.00453e-91
1.39638e-259
8.21798e-72
1.00453e-91
1.39638e-259
8.21798e-72
1.00453e-91
1.39638e-259
8.21798e-72
1.00453e-91
1.39638e-259
8.21798e-72
1.00453e-91
1.39638e-259
8.21798e-72
1.00453e-91
1.39638e-259
8.21798e-72
1.00453e-91
1.39638e-259
8.21798e-72
1.00453e-91
1.39638e-259
8.21798e-72
1.00453e-91
1.39638e-259
8.21798e-72
1.00453e-91
1.39638e-259
8.21798e-72
1.00453e-91
1.39638e-259
8.21798e-72
1.00453e-91
1.39638e-259
8.21798e-72
1.00453e-91
1.39638e-259
8.21798e-72
1.00453e-91
1.39638e-259
8.21798e-72
1.00453e-91
1.39638e-259
8.21798e-72
1.00453e-91
1.39638e-259
8.21798e-72
1.00453e-91
1.39638e-259
8.21798e-72
1.00453e-91
1.39638e-259
8.21798e-72
1.00453e-91
1.39638e-259
8.21798e-72
1.00453e-91
1.39638e-259
8.21798e-72
1.00453e-91
1.39638e-259
8.21798e-72
1.00453e-91
1.39638e-259
8.21798e-72
1.00453e-91
1.39638e-259
8.21798e-72
1.00453e-91
1.39638e-259
6.01347e-154
3.43508e+228
8.25073e+160
1.19894e+285
6.01347e-154
6.01386e-154
6.01347e-154
1.91083e+214
6.01347e-154
1.45386e+180
6.1436e-154
6.99011e-77
6.01347e-154
9.04115e+271
6.01347e-154
5.98158e-154
3.11065e+161
6.01347e-154
5.70927e+228
1.62691e+219
1.16154e+171
2.23451e-48
2.90922e-33
1.48541e-76
3.27233e+179
1.0333e-47
1.48541e-76
3.59968e+179
6.77619e-43
1.48346e-76
4.08598e-33
4.02953e-86
2.83067e-33
4.08598e-33
4.02953e-86
2.83067e-33
2.17699e-76
1.85524e-72
5.20941e-90
4.17822e-62
1.64287e-259
3.76113e+179
2.90885e-33
1.7934e-52
3.05748e-57
1.85386e-72
1.21246e-99
9.15785e-72
3.3761e-57
8.24317e-67
3.82846e-86
7.7526e-72
1.04085e-42
7.95992e-63
1.21135e-99
1.42649e-71
1.96711e-259
5.20746e-90
7.48534e-67
1.5622e-259
3.7586e+179
3.67053e-62
1.7934e-52
5.39936e-62
3.82848e-86
5.45166e-67
1.48609e-76
1.21567e-67
5.20365e-90
1.10711e-47
1.39992e-259
3.60157e+179
1.30454e-76
1.7934e-52
1.36967e-71
1.85359e-72
5.20749e-90
1.03997e-42
1.80483e-259
3.59968e+179
2.90809e-33
1.89699e-52
8.2301e-67
5.21893e-58
5.20462e-90
2.42259e-52
5.21584e-58
5.20462e-90
2.42259e-52
5.21584e-58
5.20462e-90
2.42259e-52
5.21584e-58
5.20462e-90
2.42259e-52
5.21584e-58
5.20462e-90
6.12766e-62
1.85524e-72
5.20652e-90
3.30884e-33
5.34732e-38
9.05798e-43
3.42631e-86
6.74234e-67
3.8919e-33
4.43169e-86
8.3186e-72
2.00291e-76
1.6416e-259
2.78922e+179
5.93053e-38
2.00291e-76
9.34719e-67
4.23062e-86
8.3186e-72
4.91128e-62
1.48027e-259
3.75986e+179
8.54391e-72
5.15151e-62
3.75987e+179
6.77619e-43
3.3761e-57
3.75987e+179
6.77619e-43
3.3761e-57
3.75987e+179
6.77619e-43
3.3761e-57
3.75987e+179
6.77619e-43
3.3761e-57
3.75987e+179
6.77181e-43
3.30673e-33
3.27612e+179
8.54944e-72
1.31179e-71
1.31285e-71
3.62739e-86
5.45167e-67
1.74382e-76
1.39929e-259
3.6022e+179
1.0329e-47
1.02836e-71
1.02964e-71
7.96584e-63
1.21112e-99
9.15785e-72
3.3761e-57
1.21246e-99
9.15785e-72
3.3761e-57
9.05798e-43
4.4317e-86
8.31858e-72
4.17822e-62
1.64287e-259
1.21224e-99
9.15785e-72
3.3761e-57
1.69259e-52
3.82848e-86
1.7934e-52
6.52976e-38
3.6274e-86
8.31857e-72
1.48575e-76
1.96933e-259
3.76113e+179
2.90772e-33
9.94466e-43
9.05798e-43
3.42631e-86
8.3186e-72
4.17822e-62
1.64287e-259
2.78606e+179
1.30454e-76
1.7934e-52
1.65849e-76
1.21495e-67
1.21291e-99
9.15785e-72
3.3761e-57
9.05798e-43
4.4317e-86
8.31858e-72
4.17822e-62
1.64287e-259
1.21224e-99
9.15785e-72
3.3761e-57
1.69259e-52
3.82848e-86
1.7934e-52
6.52976e-38
3.6274e-86
8.31857e-72
1.48575e-76
1.96933e-259
3.76113e+179
2.90772e-33
9.94466e-43
9.05798e-43
3.42631e-86
8.3186e-72
4.17822e-62
1.64287e-259
2.78606e+179
1.30454e-76
1.7934e-52
5.9397e-38
1.46857e-43
1.21157e-99
4.17822e-62
1.64287e-259
3.76113e+179
8.54944e-72
1.7934e-52
3.05748e-57
7.96228e-63
5.2027e-90
2.73886e-57
1.64414e-259
5.20939e-90
7.48534e-67
1.69053e-52
3.94085e-62
3.42632e-86
8.31858e-72
1.24556e-47
1.72258e-259
3.11024e+179
2.4049e-57
1.48346e-76
1.91689e-76
1.85413e-72
5.20363e-90
2.42016e-52
3.3761e-57
4.42419e-62
3.42631e-86
1.0854e-71
7.12747e-67
3.42631e-86
1.0854e-71
7.12747e-67
3.42631e-86
1.0854e-71
7.12747e-67
3.42631e-86
1.0854e-71
7.12747e-67
3.42631e-86
1.0854e-71
7.12747e-67
3.42631e-86
1.0854e-71
7.12747e-67
3.42631e-86
1.0854e-71
7.12747e-67
3.42631e-86
1.0854e-71
7.12747e-67
3.42631e-86
1.0854e-71
7.12747e-67
3.42631e-86
1.0854e-71
7.12747e-67
3.42631e-86
1.0854e-71
7.12747e-67
3.42631e-86
1.0854e-71
7.12747e-67
3.42631e-86
1.0854e-71
7.12747e-67
3.42631e-86
1.0854e-71
7.12747e-67
3.42631e-86
1.0854e-71
7.12747e-67
3.42631e-86
1.0854e-71
7.12747e-67
3.42631e-86
1.0854e-71
7.12747e-67
3.42631e-86
1.0854e-71
7.12747e-67
3.42631e-86
1.0854e-71
7.12747e-67
3.42631e-86
1.0854e-71
7.12747e-67
3.42631e-86
1.0854e-71
7.12747e-67
3.42631e-86
1.0854e-71
7.12747e-67
3.42631e-86
1.0854e-71
7.12747e-67
3.42631e-86
1.0854e-71
7.12747e-67
3.42631e-86
1.0854e-71
7.12747e-67
3.42631e-86
1.0854e-71
7.12747e-67
3.42631e-86
1.0854e-71
7.12747e-67
3.42631e-86
1.0854e-71
7.12747e-67
3.42631e-86
1.0854e-71
7.12747e-67
3.42631e-86
1.0854e-71
7.12747e-67
3.42631e-86
1.0854e-71
7.12747e-67
3.42631e-86
1.0854e-71
7.12747e-67
3.42631e-86
1.0854e-71
7.12747e-67
3.42631e-86
1.0854e-71
7.12747e-67
3.42631e-86
1.0854e-71
7.12747e-67
3.42631e-86
1.0854e-71
7.12747e-67
3.42631e-86
1.0854e-71
7.12747e-67
3.42631e-86
1.0854e-71
7.12747e-67
3.42631e-86
1.0854e-71
7.12747e-67
3.42631e-86
1.0854e-71
7.12747e-67
3.42631e-86
1.0854e-71
7.12747e-67
3.42631e-86
1.0854e-71
7.12747e-67
3.42631e-86
1.0854e-71
7.12747e-67
3.42631e-86
1.0854e-71
7.12747e-67
3.42631e-86
1.0854e-71
7.12747e-67
3.42631e-86
1.0854e-71
7.12747e-67
3.42631e-86
1.0854e-71
7.12747e-67
3.42631e-86
1.0854e-71
7.12747e-67
3.42631e-86
1.0854e-71
7.12747e-67
3.42631e-86
1.0854e-71
7.12747e-67
3.42631e-86
1.0854e-71
7.12747e-67
3.42631e-86
1.0854e-71
7.12747e-67
3.42631e-86
1.0854e-71
7.12747e-67
3.42631e-86
1.0854e-71
7.12747e-67
3.42631e-86
1.0854e-71
7.12747e-67
3.42631e-86
1.0854e-71
7.12747e-67
3.42631e-86
1.0854e-71
7.12747e-67
3.42631e-86
1.0854e-71
7.12747e-67
3.42631e-86
1.0854e-71
7.12747e-67
3.42631e-86
1.0854e-71
7.12747e-67
3.42631e-86
1.0854e-71
7.12747e-67
3.42631e-86
1.0854e-71
7.12747e-67
3.42631e-86
1.0854e-71
7.12747e-67
3.42631e-86
1.0854e-71
7.12747e-67
3.42631e-86
1.0854e-71
7.12747e-67
3.42631e-86
1.0854e-71
7.12747e-67
)
;
    }
    frontAndBack
    {
        type            empty;
    }
}


// ************************************************************************* //
