/*--------------------------------*- C++ -*----------------------------------*\
  =========                 |
  \\      /  F ield         | OpenFOAM: The Open Source CFD Toolbox
   \\    /   O peration     | Website:  https://openfoam.org
    \\  /    A nd           | Version:  9
     \\/     M anipulation  |
\*---------------------------------------------------------------------------*/
FoamFile
{
    format      ascii;
    class       volScalarField;
    location    "0";
    object      f_5;
}
// * * * * * * * * * * * * * * * * * * * * * * * * * * * * * * * * * * * * * //

dimensions      [1 -3 0 0 0 0 0];

internalField   uniform 27.7778;

boundaryField
{
    movingWall
    {
        type            lbmWall;
        wallVelocity    (1 0 0);
        index           5;
        value           nonuniform List<scalar> 
200
(
6.91585e-310
6.91585e-310
4.6493e-310
4.6493e-310
0
0
0
0
0
0
0
0
0
0
0
0
0
0
0
0
0
0
0
0
0
0
0
0
0
0
0
0
0
0
0
0
0
0
0
0
0
0
0
0
0
0
0
0
0
0
10
10
10
10
10
10
10
10
10
10
10
10
10
10
10
10
10
10
10
10
10
10
10
10
10
10
10
10
10
10
10
10
10
10
10
10
10
10
10
10
10
10
10
10
10
10
10
10
10
10
10
10
10
10
10
10
10
10
10
10
10
10
10
10
10
10
10
10
10
10
10
10
10
10
10
10
10
10
10
10
10
10
10
10
10
10
10
10
10
10
10
10
10
10
10
10
10
10
10
10
10
10
10
10
10
10
10
10
10
10
10
10
10
10
10
10
10
10
10
10
10
10
10
10
10
10
10
10
10
10
10
10
10
10
10
10
10
10
10
10
10
10
10
10
10
10
10
10
10
10
)
;
    }
    boundaryWall
    {
        type            lbmWall;
        wallVelocity    (0 0 0);
        index           5;
        value           nonuniform List<scalar> 
600
(
6.91585e-310
6.91585e-310
4.6493e-310
4.6493e-310
9.73761e-101
4.47594e-91
4.47594e-91
4.47594e-91
4.47594e-91
9.15903e-259
1.03879e-13
6.01347e-154
6.01347e-154
5.98195e-154
6.01347e-154
1.44157e+214
6.01347e-154
6.19962e+223
3.67293e+194
2.67768e+92
3.03072e+30
3.49157e+228
8.4607e-153
1.42456e+73
4.82407e+228
3.35631e-152
2.16637e-27
3.92573e-27
4.25109e+228
2.46163e-154
1.06255e-81
5.96086e+175
6.01347e-154
1.13817e+243
1.55287e-33
8.17708e+136
4.34456e-153
3.99196e+252
2.40628e+135
4.47594e-91
4.47594e-91
4.47594e-91
4.47594e-91
4.47594e-91
4.47594e-91
4.47594e-91
4.47594e-91
4.47594e-91
2.59316e+29
1.39336e-258
4.19314e+228
6.01347e-154
1.6816e-22
1.99549e+161
6.01347e-154
1.17073e+214
1.35151e-22
9.48695e+170
6.01392e-154
5.98158e-154
4.44388e+252
3.62127e+151
1.1629e-153
9.7427e-154
9.7427e-154
9.7427e-154
9.7427e-154
9.7427e-154
9.7427e-154
9.7427e-154
9.7427e-154
9.7427e-154
4.79345e+199
1.064e+248
6.14099e-71
1.20271e-153
2.22466e-259
2.14028e+161
6.11296e-154
1.62691e+219
6.82248e-38
6.0267e+175
5.61858e+175
4.44713e+217
1.16759e+214
3.52843e-258
6.01347e-154
6.01347e-154
6.01347e-154
1.8809e-22
6.01347e-154
1.43665e+214
6.01398e-154
2.68214e-110
6.01347e-154
2.91127e-152
6.01347e-154
6.01335e-154
1.17567e+214
6.01347e-154
9.08895e+223
1.75701e-152
1.36726e+161
1.55793e-76
9.33997e-67
1.3164e-259
5.20459e-90
1.51765e-47
1.3164e-259
5.20652e-90
1.30401e-259
1.30401e-259
1.30401e-259
1.30401e-259
1.30401e-259
1.30401e-259
1.30401e-259
1.30401e-259
1.30401e-259
1.30401e-259
1.30401e-259
1.30401e-259
1.30401e-259
1.30401e-259
1.30401e-259
1.30401e-259
1.30401e-259
1.30401e-259
1.30401e-259
1.30401e-259
1.30401e-259
1.30401e-259
1.30401e-259
1.30401e-259
1.30401e-259
1.30401e-259
1.30401e-259
1.30401e-259
1.30401e-259
1.30401e-259
1.30401e-259
1.30401e-259
1.30401e-259
1.30401e-259
1.30401e-259
1.30401e-259
1.30401e-259
1.30401e-259
1.30401e-259
1.30401e-259
1.30401e-259
1.30401e-259
1.30401e-259
1.30401e-259
1.30401e-259
1.30401e-259
1.30401e-259
1.30401e-259
1.30401e-259
2.19829e-259
5.98195e-154
1.43624e+161
2.46345e-154
6.01335e-154
6.32275e+233
6.01347e-154
8.12891e+218
5.98158e-154
3.25124e+161
4.64898e+199
1.04176e-76
2.44551e-154
2.41079e+198
6.01347e-154
8.4179e-53
6.01347e-154
1.28037e-152
6.01347e-154
7.28583e+199
8.84386e+247
9.29434e+242
8.30803e-116
3.27233e+179
1.0333e-47
1.48541e-76
3.59968e+179
1.0333e-47
1.48541e-76
1.25736e-71
4.02953e-86
2.83067e-33
4.08598e-33
4.02953e-86
2.83067e-33
4.08598e-33
5.03492e-86
5.45166e-67
5.63891e-38
2.24084e-48
5.20748e-90
9.15785e-72
3.3761e-57
2.6302e-52
4.4317e-86
8.3186e-72
1.1435e-71
1.6416e-259
3.76113e+179
8.54944e-72
6.73945e-67
3.50821e-33
1.21495e-67
1.21269e-99
1.65713e-76
7.95752e-63
1.21246e-99
1.38081e-47
1.56157e-259
3.59968e+179
8.96904e-67
5.34732e-38
1.08735e-71
3.62739e-86
5.45168e-67
9.5047e-43
4.02955e-86
5.08076e-67
1.25669e-71
1.64287e-259
3.43758e+179
1.72292e-47
2.42136e-52
9.05798e-43
3.42631e-86
5.08075e-67
7.86639e-67
9.62436e-39
1.21268e-99
3.05563e-57
5.15151e-62
1.72373e-47
3.62739e-86
7.75262e-72
2.42259e-52
5.21584e-58
5.20462e-90
2.42259e-52
5.21584e-58
5.20462e-90
2.42259e-52
5.21584e-58
5.20462e-90
2.42259e-52
5.21584e-58
5.20462e-90
2.42259e-52
1.21441e-67
1.21223e-99
6.12576e-62
1.96806e-259
3.27296e+179
1.30454e-76
1.7934e-52
1.17821e-47
2.90734e-33
1.17479e-47
3.05748e-57
1.85386e-72
1.21157e-99
2.00253e-52
1.47931e-259
3.44012e+179
1.30454e-76
1.7934e-52
1.79781e-52
5.21816e-58
1.21269e-99
8.22719e-67
1.19943e-71
4.08405e+179
6.77619e-43
3.3761e-57
3.75987e+179
6.77619e-43
3.3761e-57
3.75987e+179
6.77619e-43
3.3761e-57
3.75987e+179
6.77619e-43
3.3761e-57
3.75987e+179
6.77619e-43
3.3761e-57
2.10899e-52
3.42633e-86
5.93506e-38
4.85109e-33
5.59934e-67
1.7934e-52
1.38187e-47
1.21585e-67
1.21268e-99
9.72383e-72
3.3761e-57
1.42693e-71
4.02956e-86
5.08075e-67
1.04015e-42
1.31862e-259
3.43632e+179
8.54391e-72
1.5603e-259
3.76113e+179
1.30454e-76
1.7934e-52
3.2168e-57
2.24118e-48
5.20748e-90
1.17553e-47
1.6416e-259
3.76113e+179
1.30387e-76
1.48279e-76
1.58741e-47
4.43169e-86
6.59066e-43
2.21379e-52
1.21495e-67
1.21291e-99
9.15785e-72
3.3761e-57
4.08721e+179
9.15785e-72
3.3761e-57
8.60436e-43
4.43169e-86
8.3186e-72
2.42341e-52
1.56125e-259
3.43632e+179
1.0333e-47
1.17479e-47
6.81902e-38
2.24084e-48
5.20748e-90
9.15785e-72
3.3761e-57
3.21866e-57
4.4317e-86
8.3186e-72
9.95129e-43
2.24118e-48
5.20748e-90
4.75501e-38
4.75842e-38
3.60094e+179
2.90922e-33
1.03931e-42
1.20032e-71
3.62739e-86
7.75262e-72
4.17822e-62
1.64287e-259
5.20941e-90
4.17822e-62
1.64287e-259
3.76049e+179
1.30454e-76
1.7934e-52
1.83222e-76
2.24085e-48
5.20556e-90
1.44923e-47
5.88077e-62
6.13147e-62
1.30454e-76
1.7934e-52
3.05748e-57
2.24118e-48
5.2046e-90
9.15785e-72
3.3761e-57
9.35446e-67
8.54501e-72
3.49932e-33
3.69704e-33
3.42632e-86
8.31858e-72
1.24556e-47
1.72258e-259
3.11024e+179
2.4049e-57
1.48346e-76
1.91689e-76
1.85413e-72
5.20363e-90
7.48534e-67
1.69053e-52
3.94085e-62
5.03493e-86
8.31859e-72
1.12983e-42
1.96679e-259
1.30401e-259
1.30401e-259
1.30401e-259
1.30401e-259
1.30401e-259
1.30401e-259
1.30401e-259
1.30401e-259
1.30401e-259
1.30401e-259
1.30401e-259
1.30401e-259
1.30401e-259
1.30401e-259
1.30401e-259
1.30401e-259
1.30401e-259
1.30401e-259
1.30401e-259
1.30401e-259
1.30401e-259
1.30401e-259
1.30401e-259
1.30401e-259
1.30401e-259
1.30401e-259
1.30401e-259
1.30401e-259
1.30401e-259
1.30401e-259
1.30401e-259
1.30401e-259
1.30401e-259
1.30401e-259
1.30401e-259
1.30401e-259
1.30401e-259
1.30401e-259
1.30401e-259
1.30401e-259
1.30401e-259
1.30401e-259
1.30401e-259
1.30401e-259
1.30401e-259
1.30401e-259
1.30401e-259
1.30401e-259
1.30401e-259
1.30401e-259
1.30401e-259
1.30401e-259
1.30401e-259
1.30401e-259
1.30401e-259
1.30401e-259
1.30401e-259
1.30401e-259
1.30401e-259
1.30401e-259
1.30401e-259
1.30401e-259
1.30401e-259
1.30401e-259
1.30401e-259
1.30401e-259
1.30401e-259
1.30401e-259
1.30401e-259
1.30401e-259
1.30401e-259
1.30401e-259
1.30401e-259
1.30401e-259
1.30401e-259
1.30401e-259
1.30401e-259
1.30401e-259
1.30401e-259
1.30401e-259
1.30401e-259
1.30401e-259
1.30401e-259
1.30401e-259
1.30401e-259
1.30401e-259
1.30401e-259
1.30401e-259
1.30401e-259
1.30401e-259
1.30401e-259
1.30401e-259
1.30401e-259
1.30401e-259
1.30401e-259
1.30401e-259
1.30401e-259
1.30401e-259
1.30401e-259
1.30401e-259
1.30401e-259
1.30401e-259
1.30401e-259
1.30401e-259
1.30401e-259
1.30401e-259
1.30401e-259
1.30401e-259
1.30401e-259
1.30401e-259
1.30401e-259
1.30401e-259
1.30401e-259
1.30401e-259
1.01785e-259
3.78858e-258
9.09378e+223
1.99104e+209
2.4688e-154
2.30908e+251
6.01347e-154
1.30689e+179
5.98158e-154
2.64637e-260
1.42603e-105
1.42603e-105
1.42603e-105
1.42603e-105
1.42603e-105
1.42603e-105
1.42603e-105
1.42603e-105
1.42603e-105
1.26761e-259
0
0
0
0
0
0
0
0
0
0
0
0
0
0
0
0
0
0
0
0
0
0
0
0
0
0
0
0
0
0
0
0
0
0
0
0
0
0
0
0
0
0
0
0
0
0
0
0
0
0
0
0
0
0
0
0
0
0
0
0
0
0
)
;
    }
    frontAndBack
    {
        type            empty;
    }
}


// ************************************************************************* //
