/*--------------------------------*- C++ -*----------------------------------*\
  =========                 |
  \\      /  F ield         | OpenFOAM: The Open Source CFD Toolbox
   \\    /   O peration     | Website:  https://openfoam.org
    \\  /    A nd           | Version:  9
     \\/     M anipulation  |
\*---------------------------------------------------------------------------*/
FoamFile
{
    format      ascii;
    class       volScalarField;
    location    "0";
    object      f_6;
}
// * * * * * * * * * * * * * * * * * * * * * * * * * * * * * * * * * * * * * //

dimensions      [1 -3 0 0 0 0 0];

internalField   uniform 27.7778;

boundaryField
{
    movingWall
    {
        type            lbmWall;
        wallVelocity    (1 0 0);
        index           6;
        value           nonuniform List<scalar> 
200
(
6.91585e-310
6.91585e-310
4.6493e-310
4.6493e-310
9.73761e-101
4.47594e-91
4.47594e-91
4.47594e-91
4.47594e-91
9.15903e-259
1.03879e-13
6.01347e-154
6.01347e-154
5.98195e-154
6.01347e-154
1.44157e+214
6.01347e-154
6.19962e+223
3.67293e+194
2.67768e+92
3.03072e+30
3.49157e+228
8.4607e-153
1.42456e+73
4.82407e+228
3.35631e-152
2.16637e-27
3.92573e-27
4.25109e+228
2.46163e-154
1.06255e-81
5.96086e+175
6.01347e-154
1.13817e+243
1.55287e-33
8.17708e+136
4.34456e-153
3.99196e+252
2.40628e+135
4.47594e-91
4.47594e-91
4.47594e-91
4.47594e-91
4.47594e-91
4.47594e-91
4.47594e-91
4.47594e-91
4.47594e-91
2.59316e+29
1.39336e-258
4.19314e+228
6.01347e-154
1.6816e-22
1.99549e+161
6.01347e-154
1.17073e+214
1.35151e-22
9.48695e+170
6.01392e-154
5.98158e-154
4.44388e+252
3.62127e+151
1.1629e-153
9.7427e-154
9.7427e-154
9.7427e-154
9.7427e-154
9.7427e-154
9.7427e-154
9.7427e-154
9.7427e-154
9.7427e-154
4.79345e+199
1.064e+248
6.14099e-71
1.20271e-153
2.22466e-259
2.14028e+161
6.11296e-154
1.62691e+219
6.82248e-38
6.0267e+175
5.61858e+175
4.44713e+217
1.16759e+214
3.52843e-258
6.01347e-154
6.01347e-154
6.01347e-154
1.8809e-22
6.01347e-154
1.43665e+214
6.01398e-154
2.68214e-110
6.01347e-154
2.91127e-152
6.01347e-154
6.01335e-154
1.17567e+214
6.01347e-154
9.08895e+223
1.75701e-152
1.36726e+161
1.55793e-76
9.33997e-67
1.3164e-259
5.20459e-90
1.51765e-47
1.3164e-259
5.20652e-90
1.38531e-259
1.38531e-259
8.21798e-72
1.00453e-91
1.39638e-259
8.21798e-72
1.00453e-91
1.39638e-259
8.21798e-72
1.00453e-91
1.39638e-259
8.21798e-72
1.00453e-91
1.39638e-259
8.21798e-72
1.00453e-91
1.39638e-259
8.21798e-72
1.00453e-91
1.39638e-259
8.21798e-72
1.00453e-91
1.39638e-259
8.21798e-72
1.00453e-91
1.39638e-259
8.21798e-72
1.00453e-91
1.39638e-259
8.21798e-72
1.00453e-91
1.39638e-259
8.21798e-72
1.00453e-91
1.39638e-259
8.21798e-72
1.00453e-91
1.39638e-259
8.21798e-72
1.00453e-91
1.39638e-259
8.21798e-72
1.00453e-91
1.39638e-259
8.21798e-72
1.00453e-91
1.39638e-259
8.21798e-72
1.00453e-91
1.39638e-259
8.21798e-72
1.00453e-91
1.39638e-259
8.21798e-72
1.00453e-91
1.39638e-259
8.21798e-72
1.00453e-91
1.39638e-259
8.21798e-72
1.00453e-91
1.39638e-259
8.21798e-72
1.00453e-91
1.39638e-259
8.21798e-72
1.00453e-91
1.39638e-259
8.21798e-72
1.00453e-91
1.39638e-259
8.21798e-72
1.00453e-91
5.98158e-154
6.01347e-154
1.0182e+277
6.01335e-154
6.01347e-154
1.27922e-152
6.01347e-154
8.23417e+160
6.01347e-154
1.91087e+214
1.13072e+277
6.99016e-77
6.01335e-154
6.01718e+175
6.01347e-154
2.21225e-259
6.01347e-154
)
;
    }
    boundaryWall
    {
        type            lbmWall;
        wallVelocity    (0 0 0);
        index           6;
        value           nonuniform List<scalar> 
600
(
6.91585e-310
6.91585e-310
4.6493e-310
4.6493e-310
3.5728e-62
1.5738e-76
5.21504e-58
3.57281e-62
2.319e-52
6.30459e-34
5.20173e-90
9.04924e-43
1.40024e-259
3.27803e+179
9.04924e-43
1.40024e-259
3.27803e+179
1.79373e-52
4.0822e-33
4.47192e-33
1.30454e-76
1.7934e-52
3.05748e-57
3.41977e-53
5.20558e-90
9.15785e-72
3.3761e-57
9.50291e-43
4.4317e-86
8.3186e-72
4.85182e-33
1.56062e-259
3.11593e+179
1.03303e-47
9.33589e-67
8.60101e-67
2.40552e-57
6.73945e-67
7.26959e-43
3.42631e-86
6.14225e-43
1.74418e-76
7.96701e-63
5.20172e-90
1.17553e-47
1.88581e-259
3.11467e+179
1.89813e-52
5.34732e-38
5.39463e-62
3.42631e-86
4.31926e-38
4.76422e-38
2.24152e-48
5.20748e-90
4.17633e-62
4.90937e-62
1.08499e-42
8.55165e-72
4.17368e-62
2.10939e-52
7.96109e-63
1.21224e-99
1.74282e-76
2.00375e-52
4.01585e-57
2.40583e-57
1.42499e-71
4.01585e-57
2.40583e-57
1.42499e-71
4.01585e-57
2.40583e-57
1.42499e-71
4.01585e-57
2.40583e-57
1.42499e-71
4.01585e-57
1.57628e-52
3.49932e-33
1.31372e-47
4.02956e-86
5.08075e-67
4.17822e-62
1.64287e-259
5.20651e-90
2.63344e-52
1.39929e-259
3.76113e+179
8.54391e-72
1.02836e-71
1.79658e-52
5.03492e-86
7.75261e-72
4.17822e-62
1.64287e-259
3.92385e+179
2.40583e-57
1.89699e-52
6.3784e-67
1.85303e-72
8.3186e-72
7.49836e-67
6.30837e-34
8.3186e-72
7.49836e-67
6.30837e-34
8.3186e-72
7.49836e-67
6.30837e-34
8.3186e-72
7.49836e-67
6.30837e-34
8.3186e-72
7.49836e-67
5.21816e-58
1.21201e-99
1.10711e-47
2.24252e-48
5.20941e-90
6.00744e-67
1.56157e-259
3.60031e+179
8.54501e-72
1.17479e-47
3.50368e-33
1.85386e-72
1.21113e-99
1.31197e-71
9.5046e-43
1.20077e-71
4.43168e-86
8.31859e-72
8.15762e-43
4.43169e-86
8.3186e-72
4.17822e-62
1.64287e-259
3.27486e+179
1.30454e-76
1.7934e-52
1.58821e-47
4.4317e-86
8.3186e-72
1.65502e-47
1.96647e-259
5.20653e-90
7.39989e-38
1.88739e-259
2.78923e+179
2.40521e-57
3.30673e-33
3.05748e-57
3.41977e-53
5.20557e-90
4.17822e-62
1.64287e-259
3.76049e+179
1.30454e-76
1.7934e-52
1.83222e-76
2.24085e-48
5.20556e-90
3.53355e-57
3.5354e-57
4.66376e-33
4.43169e-86
8.3186e-72
4.17822e-62
1.64287e-259
3.27486e+179
1.30454e-76
1.7934e-52
1.58821e-47
4.4317e-86
8.3186e-72
1.65502e-47
1.96647e-259
5.20653e-90
7.39989e-38
1.88739e-259
2.78923e+179
2.40521e-57
3.30673e-33
3.05748e-57
3.41977e-53
5.20557e-90
4.17822e-62
1.64287e-259
3.76049e+179
1.30454e-76
1.7934e-52
1.83222e-76
2.24085e-48
5.20556e-90
1.44923e-47
5.88077e-62
6.13147e-62
1.30454e-76
1.7934e-52
3.05748e-57
2.24118e-48
5.2046e-90
9.15785e-72
3.3761e-57
9.35446e-67
8.54501e-72
3.49932e-33
3.69704e-33
3.42632e-86
8.31858e-72
1.24556e-47
1.72258e-259
3.11024e+179
2.4049e-57
1.48346e-76
1.91689e-76
1.85413e-72
5.20363e-90
7.48534e-67
1.69053e-52
3.94085e-62
5.03493e-86
8.31859e-72
1.12983e-42
1.96679e-259
1.30401e-259
1.30401e-259
1.30401e-259
1.30401e-259
1.30401e-259
1.30401e-259
1.30401e-259
1.30401e-259
1.30401e-259
1.30401e-259
1.30401e-259
1.30401e-259
1.30401e-259
1.30401e-259
1.30401e-259
1.30401e-259
1.30401e-259
1.30401e-259
1.30401e-259
1.30401e-259
1.30401e-259
1.30401e-259
1.30401e-259
1.30401e-259
1.30401e-259
1.30401e-259
1.30401e-259
1.30401e-259
1.30401e-259
1.30401e-259
1.30401e-259
1.30401e-259
1.30401e-259
1.30401e-259
1.30401e-259
1.30401e-259
1.30401e-259
1.30401e-259
1.30401e-259
1.30401e-259
1.30401e-259
1.30401e-259
1.30401e-259
1.30401e-259
1.30401e-259
1.30401e-259
1.30401e-259
1.30401e-259
1.30401e-259
1.30401e-259
1.30401e-259
1.30401e-259
1.30401e-259
1.30401e-259
1.30401e-259
1.30401e-259
1.30401e-259
1.30401e-259
1.30401e-259
1.30401e-259
1.30401e-259
1.30401e-259
1.30401e-259
1.30401e-259
1.30401e-259
1.30401e-259
1.30401e-259
1.30401e-259
1.30401e-259
1.30401e-259
1.30401e-259
1.30401e-259
1.30401e-259
1.30401e-259
1.30401e-259
1.30401e-259
1.30401e-259
1.30401e-259
1.30401e-259
1.30401e-259
1.30401e-259
1.30401e-259
1.30401e-259
1.30401e-259
1.30401e-259
1.30401e-259
1.30401e-259
1.30401e-259
1.30401e-259
1.30401e-259
1.30401e-259
1.30401e-259
1.30401e-259
1.30401e-259
1.30401e-259
1.30401e-259
1.30401e-259
1.30401e-259
1.30401e-259
1.30401e-259
1.30401e-259
1.30401e-259
1.30401e-259
1.30401e-259
1.30401e-259
1.30401e-259
1.30401e-259
1.30401e-259
1.30401e-259
1.30401e-259
1.30401e-259
1.30401e-259
1.30401e-259
1.30401e-259
1.01785e-259
3.78858e-258
9.09378e+223
1.99104e+209
2.4688e-154
2.30908e+251
6.01347e-154
1.30689e+179
5.98158e-154
2.64637e-260
1.42603e-105
1.42603e-105
1.42603e-105
1.42603e-105
1.42603e-105
1.42603e-105
1.42603e-105
1.42603e-105
1.42603e-105
1.26761e-259
0
0
0
0
0
0
0
0
0
0
0
0
0
0
0
0
0
0
0
0
0
0
0
0
0
0
0
0
0
0
0
0
0
0
0
0
0
0
0
0
0
0
0
0
0
0
0
0
0
0
0
0
0
0
0
0
0
0
0
0
0
0
0
0
0
0
0
0
0
0
0
0
0
0
0
0
0
0
0
0
0
0
0
0
0
0
0
0
0
0
0
0
0
0
0
0
0
0
0
0
0
0
0
0
0
0
0
0
0
0
0
0
0
0
0
0
0
0
0
0
0
0
0
0
0
0
0
0
0
0
0
0
0
0
0
0
0
0
0
0
0
0
0
0
0
0
0
0
0
0
0
0
0
0
0
0
0
0
0
0
0
0
0
0
0
0
0
0
0
0
0
0
0
0
0
0
0
0
0
0
0
0
0
0
0
0
0
0
0
0
0
0
0
0
0
0
0
0
0
0
0
0
0
0
0
0
0
0
0
0
0
0
0
0
0
0
0
0
0
0
0
0
0
0
0
0
0
0
0
0
0
0
0
0
0
0
0
0
0
0
)
;
    }
    frontAndBack
    {
        type            empty;
    }
}


// ************************************************************************* //
