/*--------------------------------*- C++ -*----------------------------------*\
  =========                 |
  \\      /  F ield         | OpenFOAM: The Open Source CFD Toolbox
   \\    /   O peration     | Website:  https://openfoam.org
    \\  /    A nd           | Version:  9
     \\/     M anipulation  |
\*---------------------------------------------------------------------------*/
FoamFile
{
    format      ascii;
    class       volVectorField;
    location    "3.35";
    object      U;
}
// * * * * * * * * * * * * * * * * * * * * * * * * * * * * * * * * * * * * * //

dimensions      [0 1 -1 0 0 0 0];

internalField   nonuniform List<vector> 
1000
(
(0.131765 0 0)
(0.131694 0 0)
(0.131766 0 0)
(0.131692 0 0)
(0.131766 0 0)
(0.13169 0 0)
(0.131767 0 0)
(0.131688 0 0)
(0.131768 0 0)
(0.131686 0 0)
(0.131768 0 0)
(0.131684 0 0)
(0.131768 0 0)
(0.131682 0 0)
(0.131769 0 0)
(0.13168 0 0)
(0.131769 0 0)
(0.131678 0 0)
(0.131769 0 0)
(0.131677 0 0)
(0.13177 0 0)
(0.131675 0 0)
(0.13177 0 0)
(0.131673 0 0)
(0.13177 0 0)
(0.131672 0 0)
(0.13177 0 0)
(0.131671 0 0)
(0.13177 0 0)
(0.13167 0 0)
(0.13177 0 0)
(0.131669 0 0)
(0.13177 0 0)
(0.131668 0 0)
(0.13177 0 0)
(0.131667 0 0)
(0.131771 0 0)
(0.131667 0 0)
(0.131771 0 0)
(0.131667 0 0)
(0.131771 0 0)
(0.131668 0 0)
(0.131772 0 0)
(0.131669 0 0)
(0.131773 0 0)
(0.13167 0 0)
(0.131774 0 0)
(0.131672 0 0)
(0.131775 0 0)
(0.131674 0 0)
(0.131776 0 0)
(0.131676 0 0)
(0.131778 0 0)
(0.13168 0 0)
(0.131781 0 0)
(0.131684 0 0)
(0.131783 0 0)
(0.131688 0 0)
(0.131787 0 0)
(0.131694 0 0)
(0.13179 0 0)
(0.1317 0 0)
(0.131795 0 0)
(0.131707 0 0)
(0.1318 0 0)
(0.131715 0 0)
(0.131806 0 0)
(0.131723 0 0)
(0.131813 0 0)
(0.131733 0 0)
(0.131821 0 0)
(0.131744 0 0)
(0.131829 0 0)
(0.131757 0 0)
(0.131839 0 0)
(0.13177 0 0)
(0.13185 0 0)
(0.131785 0 0)
(0.131863 0 0)
(0.1318 0 0)
(0.131876 0 0)
(0.131818 0 0)
(0.131892 0 0)
(0.131835 0 0)
(0.131911 0 0)
(0.131852 0 0)
(0.131935 0 0)
(0.131865 0 0)
(0.131971 0 0)
(0.131866 0 0)
(0.132026 0 0)
(0.131851 0 0)
(0.132105 0 0)
(0.13183 0 0)
(0.132194 0 0)
(0.131841 0 0)
(0.132259 0 0)
(0.131935 0 0)
(0.132289 0 0)
(0.132103 0 0)
(0.132345 0 0)
(0.132274 0 0)
(0.132448 0 0)
(0.132417 0 0)
(0.132564 0 0)
(0.132533 0 0)
(0.132663 0 0)
(0.132624 0 0)
(0.132737 0 0)
(0.13269 0 0)
(0.132788 0 0)
(0.132739 0 0)
(0.132825 0 0)
(0.132775 0 0)
(0.132853 0 0)
(0.132807 0 0)
(0.132879 0 0)
(0.132836 0 0)
(0.132903 0 0)
(0.132865 0 0)
(0.132929 0 0)
(0.132895 0 0)
(0.132955 0 0)
(0.132926 0 0)
(0.132983 0 0)
(0.132958 0 0)
(0.133012 0 0)
(0.132991 0 0)
(0.133042 0 0)
(0.133025 0 0)
(0.133073 0 0)
(0.13306 0 0)
(0.133106 0 0)
(0.133096 0 0)
(0.133139 0 0)
(0.133132 0 0)
(0.133173 0 0)
(0.13317 0 0)
(0.133209 0 0)
(0.133208 0 0)
(0.133245 0 0)
(0.133246 0 0)
(0.133282 0 0)
(0.133286 0 0)
(0.133319 0 0)
(0.133325 0 0)
(0.133357 0 0)
(0.133365 0 0)
(0.133395 0 0)
(0.133404 0 0)
(0.133433 0 0)
(0.133444 0 0)
(0.133472 0 0)
(0.133484 0 0)
(0.13351 0 0)
(0.133524 0 0)
(0.133548 0 0)
(0.133563 0 0)
(0.133586 0 0)
(0.133601 0 0)
(0.133624 0 0)
(0.13364 0 0)
(0.133661 0 0)
(0.133677 0 0)
(0.133697 0 0)
(0.133713 0 0)
(0.133733 0 0)
(0.133749 0 0)
(0.133767 0 0)
(0.133783 0 0)
(0.1338 0 0)
(0.133816 0 0)
(0.133832 0 0)
(0.133848 0 0)
(0.133863 0 0)
(0.133878 0 0)
(0.133892 0 0)
(0.133907 0 0)
(0.133919 0 0)
(0.133933 0 0)
(0.133945 0 0)
(0.133958 0 0)
(0.133968 0 0)
(0.133981 0 0)
(0.133989 0 0)
(0.134002 0 0)
(0.134007 0 0)
(0.134021 0 0)
(0.134023 0 0)
(0.134038 0 0)
(0.134036 0 0)
(0.134052 0 0)
(0.134048 0 0)
(0.134063 0 0)
(0.134058 0 0)
(0.13407 0 0)
(0.134068 0 0)
(0.134077 0 0)
(0.134077 0 0)
(0.134088 0 0)
(0.134092 0 0)
(0.134103 0 0)
(0.134104 0 0)
(0.1341 0 0)
(0.134068 0 0)
(0.134015 0 0)
(0.133932 0 0)
(0.133843 0 0)
(0.133748 0 0)
(0.13367 0 0)
(0.133604 0 0)
(0.133562 0 0)
(0.133528 0 0)
(0.133511 0 0)
(0.133497 0 0)
(0.133491 0 0)
(0.133484 0 0)
(0.133483 0 0)
(0.133477 0 0)
(0.133476 0 0)
(0.133471 0 0)
(0.133469 0 0)
(0.133463 0 0)
(0.13346 0 0)
(0.133453 0 0)
(0.133449 0 0)
(0.133441 0 0)
(0.133435 0 0)
(0.133426 0 0)
(0.13342 0 0)
(0.13341 0 0)
(0.133402 0 0)
(0.133391 0 0)
(0.133383 0 0)
(0.133371 0 0)
(0.133361 0 0)
(0.133349 0 0)
(0.133338 0 0)
(0.133325 0 0)
(0.133313 0 0)
(0.133299 0 0)
(0.133286 0 0)
(0.133272 0 0)
(0.133258 0 0)
(0.133243 0 0)
(0.133229 0 0)
(0.133213 0 0)
(0.133198 0 0)
(0.133181 0 0)
(0.133166 0 0)
(0.133149 0 0)
(0.133132 0 0)
(0.133115 0 0)
(0.133098 0 0)
(0.13308 0 0)
(0.133063 0 0)
(0.133044 0 0)
(0.133027 0 0)
(0.133008 0 0)
(0.13299 0 0)
(0.132971 0 0)
(0.132953 0 0)
(0.132934 0 0)
(0.132915 0 0)
(0.132896 0 0)
(0.132877 0 0)
(0.132857 0 0)
(0.132838 0 0)
(0.132819 0 0)
(0.1328 0 0)
(0.13278 0 0)
(0.132761 0 0)
(0.132742 0 0)
(0.132723 0 0)
(0.132704 0 0)
(0.132685 0 0)
(0.132665 0 0)
(0.132646 0 0)
(0.132627 0 0)
(0.132609 0 0)
(0.13259 0 0)
(0.132571 0 0)
(0.132553 0 0)
(0.132535 0 0)
(0.132516 0 0)
(0.132498 0 0)
(0.13248 0 0)
(0.132463 0 0)
(0.132445 0 0)
(0.132428 0 0)
(0.132411 0 0)
(0.132394 0 0)
(0.132377 0 0)
(0.13236 0 0)
(0.132344 0 0)
(0.132328 0 0)
(0.132312 0 0)
(0.132296 0 0)
(0.132281 0 0)
(0.132266 0 0)
(0.132251 0 0)
(0.132236 0 0)
(0.132222 0 0)
(0.132207 0 0)
(0.132193 0 0)
(0.13218 0 0)
(0.132166 0 0)
(0.132153 0 0)
(0.13214 0 0)
(0.132127 0 0)
(0.132115 0 0)
(0.132103 0 0)
(0.132091 0 0)
(0.132079 0 0)
(0.132068 0 0)
(0.132057 0 0)
(0.132046 0 0)
(0.132036 0 0)
(0.132025 0 0)
(0.132015 0 0)
(0.132005 0 0)
(0.131996 0 0)
(0.131987 0 0)
(0.131978 0 0)
(0.131969 0 0)
(0.13196 0 0)
(0.131952 0 0)
(0.131944 0 0)
(0.131936 0 0)
(0.131928 0 0)
(0.131921 0 0)
(0.131914 0 0)
(0.131907 0 0)
(0.1319 0 0)
(0.131893 0 0)
(0.131887 0 0)
(0.131881 0 0)
(0.131875 0 0)
(0.131869 0 0)
(0.131864 0 0)
(0.131858 0 0)
(0.131853 0 0)
(0.131848 0 0)
(0.131843 0 0)
(0.131839 0 0)
(0.131834 0 0)
(0.13183 0 0)
(0.131826 0 0)
(0.131822 0 0)
(0.131818 0 0)
(0.131814 0 0)
(0.131811 0 0)
(0.131807 0 0)
(0.131804 0 0)
(0.131801 0 0)
(0.131798 0 0)
(0.131795 0 0)
(0.131792 0 0)
(0.13179 0 0)
(0.131787 0 0)
(0.131785 0 0)
(0.131782 0 0)
(0.13178 0 0)
(0.131778 0 0)
(0.131776 0 0)
(0.131774 0 0)
(0.131772 0 0)
(0.13177 0 0)
(0.131769 0 0)
(0.131767 0 0)
(0.131765 0 0)
(0.131764 0 0)
(0.131762 0 0)
(0.131761 0 0)
(0.13176 0 0)
(0.131759 0 0)
(0.131757 0 0)
(0.131756 0 0)
(0.131755 0 0)
(0.131754 0 0)
(0.131753 0 0)
(0.131753 0 0)
(0.131752 0 0)
(0.131751 0 0)
(0.13175 0 0)
(0.131749 0 0)
(0.131749 0 0)
(0.131748 0 0)
(0.131747 0 0)
(0.131747 0 0)
(0.131746 0 0)
(0.131746 0 0)
(0.131745 0 0)
(0.131745 0 0)
(0.131744 0 0)
(0.131744 0 0)
(0.131744 0 0)
(0.131743 0 0)
(0.131743 0 0)
(0.131743 0 0)
(0.131742 0 0)
(0.131742 0 0)
(0.131742 0 0)
(0.131742 0 0)
(0.131741 0 0)
(0.131741 0 0)
(0.131741 0 0)
(0.131741 0 0)
(0.131741 0 0)
(0.13174 0 0)
(0.13174 0 0)
(0.13174 0 0)
(0.13174 0 0)
(0.13174 0 0)
(0.13174 0 0)
(0.13174 0 0)
(0.131739 0 0)
(0.131739 0 0)
(0.131739 0 0)
(0.131739 0 0)
(0.131739 0 0)
(0.131739 0 0)
(0.131739 0 0)
(0.131739 0 0)
(0.131739 0 0)
(0.131739 0 0)
(0.131739 0 0)
(0.131739 0 0)
(0.131739 0 0)
(0.131739 0 0)
(0.131738 0 0)
(0.131738 0 0)
(0.131738 0 0)
(0.131738 0 0)
(0.131738 0 0)
(0.131738 0 0)
(0.131738 0 0)
(0.131738 0 0)
(0.131738 0 0)
(0.131738 0 0)
(0.131738 0 0)
(0.131738 0 0)
(0.131738 0 0)
(0.131738 0 0)
(0.131738 0 0)
(0.131738 0 0)
(0.131738 0 0)
(0.131738 0 0)
(0.131738 0 0)
(0.131738 0 0)
(0.131738 0 0)
(0.131738 0 0)
(0.131738 0 0)
(0.131738 0 0)
(0.131738 0 0)
(0.131738 0 0)
(0.131738 0 0)
(0.131738 0 0)
(0.131738 0 0)
(0.131738 0 0)
(0.131738 0 0)
(0.131738 0 0)
(0.131738 0 0)
(0.131738 0 0)
(0.131738 0 0)
(0.131738 0 0)
(0.131738 0 0)
(0.131738 0 0)
(0.131738 0 0)
(0.131738 0 0)
(0.131738 0 0)
(0.131738 0 0)
(0.131738 0 0)
(0.131738 0 0)
(0.131738 0 0)
(0.131738 0 0)
(0.131738 0 0)
(0.131738 0 0)
(0.131738 0 0)
(0.131738 0 0)
(0.131738 0 0)
(0.131738 0 0)
(0.131738 0 0)
(0.131738 0 0)
(0.131738 0 0)
(0.131738 0 0)
(0.131738 0 0)
(0.131738 0 0)
(0.131738 0 0)
(0.131738 0 0)
(0.131738 0 0)
(0.131738 0 0)
(0.131738 0 0)
(0.131738 0 0)
(0.131738 0 0)
(0.131738 0 0)
(0.131738 0 0)
(0.131738 0 0)
(0.131738 0 0)
(0.131738 0 0)
(0.131738 0 0)
(0.131738 0 0)
(0.131738 0 0)
(0.131738 0 0)
(0.131738 0 0)
(0.131738 0 0)
(0.131738 0 0)
(0.131738 0 0)
(0.131738 0 0)
(0.131738 0 0)
(0.131738 0 0)
(0.131738 0 0)
(0.131738 0 0)
(0.131738 0 0)
(0.131738 0 0)
(0.131738 0 0)
(0.131738 0 0)
(0.131738 0 0)
(0.131738 0 0)
(0.131738 0 0)
(0.131738 0 0)
(0.131738 0 0)
(0.131738 0 0)
(0.131738 0 0)
(0.131738 0 0)
(0.131738 0 0)
(0.131738 0 0)
(0.131738 0 0)
(0.131738 0 0)
(0.131738 0 0)
(0.131738 0 0)
(0.131738 0 0)
(0.131738 0 0)
(0.131738 0 0)
(0.131738 0 0)
(0.131738 0 0)
(0.131738 0 0)
(0.131738 0 0)
(0.131738 0 0)
(0.131738 0 0)
(0.131738 0 0)
(0.131738 0 0)
(0.131738 0 0)
(0.131738 0 0)
(0.131738 0 0)
(0.131738 0 0)
(0.131738 0 0)
(0.131738 0 0)
(0.131738 0 0)
(0.131738 0 0)
(0.131738 0 0)
(0.131738 0 0)
(0.131738 0 0)
(0.131738 0 0)
(0.131738 0 0)
(0.131738 0 0)
(0.131738 0 0)
(0.131738 0 0)
(0.131738 0 0)
(0.131738 0 0)
(0.131738 0 0)
(0.131738 0 0)
(0.131738 0 0)
(0.131738 0 0)
(0.131738 0 0)
(0.131738 0 0)
(0.131738 0 0)
(0.131738 0 0)
(0.131738 0 0)
(0.131738 0 0)
(0.131738 0 0)
(0.131738 0 0)
(0.131738 0 0)
(0.131738 0 0)
(0.131738 0 0)
(0.131738 0 0)
(0.131738 0 0)
(0.131738 0 0)
(0.131738 0 0)
(0.131738 0 0)
(0.131738 0 0)
(0.131738 0 0)
(0.131738 0 0)
(0.131738 0 0)
(0.131738 0 0)
(0.131738 0 0)
(0.131738 0 0)
(0.131738 0 0)
(0.131738 0 0)
(0.131738 0 0)
(0.131738 0 0)
(0.131738 0 0)
(0.131738 0 0)
(0.131738 0 0)
(0.131738 0 0)
(0.131738 0 0)
(0.131738 0 0)
(0.131738 0 0)
(0.131738 0 0)
(0.131738 0 0)
(0.131738 0 0)
(0.131738 0 0)
(0.131738 0 0)
(0.131738 0 0)
(0.131738 0 0)
(0.131738 0 0)
(0.131738 0 0)
(0.131738 0 0)
(0.131738 0 0)
(0.131738 0 0)
(0.131738 0 0)
(0.131738 0 0)
(0.131738 0 0)
(0.131738 0 0)
(0.131738 0 0)
(0.131738 0 0)
(0.131738 0 0)
(0.131738 0 0)
(0.131738 0 0)
(0.131738 0 0)
(0.131738 0 0)
(0.131738 0 0)
(0.131738 0 0)
(0.131738 0 0)
(0.131738 0 0)
(0.131738 0 0)
(0.131738 0 0)
(0.131738 0 0)
(0.131738 0 0)
(0.131738 0 0)
(0.131738 0 0)
(0.131738 0 0)
(0.131738 0 0)
(0.131738 0 0)
(0.131738 0 0)
(0.131738 0 0)
(0.131738 0 0)
(0.131738 0 0)
(0.131738 0 0)
(0.131738 0 0)
(0.131738 0 0)
(0.131738 0 0)
(0.131738 0 0)
(0.131738 0 0)
(0.131738 0 0)
(0.131738 0 0)
(0.131738 0 0)
(0.131738 0 0)
(0.131738 0 0)
(0.131738 0 0)
(0.131738 0 0)
(0.131738 0 0)
(0.131738 0 0)
(0.131738 0 0)
(0.131738 0 0)
(0.131738 0 0)
(0.131738 0 0)
(0.131738 0 0)
(0.131738 0 0)
(0.131738 0 0)
(0.131738 0 0)
(0.131738 0 0)
(0.131738 0 0)
(0.131738 0 0)
(0.131738 0 0)
(0.131738 0 0)
(0.131738 0 0)
(0.131738 0 0)
(0.131738 0 0)
(0.131738 0 0)
(0.131738 0 0)
(0.131738 0 0)
(0.131738 0 0)
(0.131738 0 0)
(0.131738 0 0)
(0.131738 0 0)
(0.131738 0 0)
(0.131738 0 0)
(0.131738 0 0)
(0.131738 0 0)
(0.131738 0 0)
(0.131738 0 0)
(0.131738 0 0)
(0.131738 0 0)
(0.131738 0 0)
(0.131738 0 0)
(0.131738 0 0)
(0.131738 0 0)
(0.131738 0 0)
(0.131738 0 0)
(0.131738 0 0)
(0.131738 0 0)
(0.131738 0 0)
(0.131738 0 0)
(0.131738 0 0)
(0.131738 0 0)
(0.131738 0 0)
(0.131738 0 0)
(0.131738 0 0)
(0.131738 0 0)
(0.131738 0 0)
(0.131738 0 0)
(0.131738 0 0)
(0.131738 0 0)
(0.131738 0 0)
(0.131738 0 0)
(0.131738 0 0)
(0.131738 0 0)
(0.131738 0 0)
(0.131738 0 0)
(0.131738 0 0)
(0.131738 0 0)
(0.131738 0 0)
(0.131738 0 0)
(0.131738 0 0)
(0.131738 0 0)
(0.131738 0 0)
(0.131738 0 0)
(0.131738 0 0)
(0.131738 0 0)
(0.131738 0 0)
(0.131738 0 0)
(0.131738 0 0)
(0.131738 0 0)
(0.131738 0 0)
(0.131738 0 0)
(0.131738 0 0)
(0.131738 0 0)
(0.131738 0 0)
(0.131738 0 0)
(0.131738 0 0)
(0.131738 0 0)
(0.131738 0 0)
(0.131738 0 0)
(0.131738 0 0)
(0.131738 0 0)
(0.131738 0 0)
(0.131738 0 0)
(0.131738 0 0)
(0.131738 0 0)
(0.131738 0 0)
(0.131738 0 0)
(0.131738 0 0)
(0.131738 0 0)
(0.131738 0 0)
(0.131738 0 0)
(0.131738 0 0)
(0.131738 0 0)
(0.131738 0 0)
(0.131738 0 0)
(0.131738 0 0)
(0.131738 0 0)
(0.131738 0 0)
(0.131738 0 0)
(0.131738 0 0)
(0.131738 0 0)
(0.131738 0 0)
(0.131738 0 0)
(0.131738 0 0)
(0.131738 0 0)
(0.131738 0 0)
(0.131738 0 0)
(0.131738 0 0)
(0.131738 0 0)
(0.131738 0 0)
(0.131738 0 0)
(0.131738 0 0)
(0.131738 0 0)
(0.131738 0 0)
(0.131738 0 0)
(0.131738 0 0)
(0.131738 0 0)
(0.131738 0 0)
(0.131738 0 0)
(0.131738 0 0)
(0.131738 0 0)
(0.131738 0 0)
(0.131738 0 0)
(0.131738 0 0)
(0.131738 0 0)
(0.131738 0 0)
(0.131738 0 0)
(0.131738 0 0)
(0.131738 0 0)
(0.131738 0 0)
(0.131738 0 0)
(0.131738 0 0)
(0.131738 0 0)
(0.131738 0 0)
(0.131738 0 0)
(0.131738 0 0)
(0.131738 0 0)
(0.131738 0 0)
(0.131738 0 0)
(0.131738 0 0)
(0.131738 0 0)
(0.131738 0 0)
(0.131738 0 0)
(0.131738 0 0)
(0.131738 0 0)
(0.131738 0 0)
(0.131738 0 0)
(0.131738 0 0)
(0.131738 0 0)
(0.131738 0 0)
(0.131738 0 0)
(0.131738 0 0)
(0.131738 0 0)
(0.131738 0 0)
(0.131738 0 0)
(0.131738 0 0)
(0.131738 0 0)
(0.131738 0 0)
(0.131738 0 0)
(0.131738 0 0)
(0.131738 0 0)
(0.131738 0 0)
(0.131738 0 0)
(0.131738 0 0)
(0.131738 0 0)
(0.131738 0 0)
(0.131738 0 0)
(0.131738 0 0)
(0.131738 0 0)
(0.131738 0 0)
(0.131738 0 0)
(0.131738 0 0)
(0.131738 0 0)
(0.131738 0 0)
(0.131738 0 0)
(0.131738 0 0)
(0.131738 0 0)
(0.131738 0 0)
(0.131738 0 0)
(0.131738 0 0)
(0.131738 0 0)
(0.131738 0 0)
(0.131738 0 0)
(0.131738 0 0)
(0.131738 0 0)
(0.131738 0 0)
(0.131738 0 0)
(0.131738 0 0)
(0.131738 0 0)
(0.131738 0 0)
(0.131738 0 0)
(0.131738 0 0)
(0.131738 0 0)
(0.131738 0 0)
(0.131738 0 0)
(0.131738 0 0)
(0.131738 0 0)
(0.131738 0 0)
(0.131738 0 0)
(0.131738 0 0)
(0.131738 0 0)
(0.131738 0 0)
(0.131738 0 0)
(0.131738 0 0)
(0.131738 0 0)
(0.131738 0 0)
(0.131738 0 0)
(0.131738 0 0)
(0.131738 0 0)
(0.131738 0 0)
(0.131738 0 0)
(0.131738 0 0)
(0.131738 0 0)
(0.131738 0 0)
(0.131738 0 0)
(0.131738 0 0)
(0.131738 0 0)
(0.131738 0 0)
(0.131738 0 0)
(0.131738 0 0)
(0.131738 0 0)
(0.131738 0 0)
(0.131738 0 0)
(0.131738 0 0)
(0.131738 0 0)
(0.131738 0 0)
(0.131738 0 0)
(0.131738 0 0)
(0.131738 0 0)
(0.131738 0 0)
(0.131738 0 0)
(0.131738 0 0)
(0.131738 0 0)
(0.131738 0 0)
(0.131738 0 0)
(0.131738 0 0)
(0.131738 0 0)
(0.131738 0 0)
(0.131738 0 0)
(0.131738 0 0)
(0.131738 0 0)
(0.131738 0 0)
(0.131737 0 0)
(0.131739 0 0)
(0.131737 0 0)
(0.131739 0 0)
(0.131737 0 0)
(0.131739 0 0)
(0.131737 0 0)
(0.131739 0 0)
(0.131737 0 0)
(0.131739 0 0)
(0.131737 0 0)
(0.131739 0 0)
(0.131737 0 0)
(0.131739 0 0)
(0.131737 0 0)
(0.131739 0 0)
(0.131737 0 0)
(0.131739 0 0)
(0.131737 0 0)
(0.131739 0 0)
(0.131736 0 0)
(0.13174 0 0)
(0.131736 0 0)
(0.13174 0 0)
(0.131736 0 0)
(0.13174 0 0)
(0.131736 0 0)
(0.13174 0 0)
(0.131735 0 0)
(0.131741 0 0)
(0.131735 0 0)
(0.131741 0 0)
(0.131735 0 0)
(0.131741 0 0)
(0.131735 0 0)
(0.131741 0 0)
(0.131734 0 0)
(0.131742 0 0)
(0.131734 0 0)
(0.131742 0 0)
(0.131733 0 0)
(0.131742 0 0)
(0.131733 0 0)
(0.131743 0 0)
(0.131732 0 0)
(0.131743 0 0)
(0.131732 0 0)
(0.131744 0 0)
(0.131731 0 0)
(0.131744 0 0)
(0.131731 0 0)
(0.131745 0 0)
(0.13173 0 0)
(0.131745 0 0)
(0.131729 0 0)
(0.131746 0 0)
(0.131728 0 0)
(0.131747 0 0)
(0.131728 0 0)
(0.131747 0 0)
(0.131727 0 0)
(0.131748 0 0)
(0.131726 0 0)
(0.131749 0 0)
(0.131725 0 0)
(0.131749 0 0)
(0.131724 0 0)
(0.13175 0 0)
(0.131723 0 0)
(0.131751 0 0)
(0.131722 0 0)
(0.131752 0 0)
(0.13172 0 0)
(0.131753 0 0)
(0.131719 0 0)
(0.131753 0 0)
(0.131718 0 0)
(0.131754 0 0)
(0.131717 0 0)
(0.131755 0 0)
(0.131715 0 0)
(0.131756 0 0)
(0.131714 0 0)
(0.131757 0 0)
(0.131712 0 0)
(0.131758 0 0)
(0.13171 0 0)
(0.131759 0 0)
(0.131709 0 0)
(0.13176 0 0)
(0.131707 0 0)
(0.13176 0 0)
(0.131705 0 0)
(0.131761 0 0)
(0.131704 0 0)
(0.131762 0 0)
(0.131702 0 0)
(0.131763 0 0)
(0.1317 0 0)
(0.131764 0 0)
(0.131698 0 0)
(0.131765 0 0)
(0.131696 0 0)
)
;

boundaryField
{
    topWall
    {
        type            empty;
    }
    bottomWall
    {
        type            empty;
    }
    leftAndRight_half1
    {
        type            cyclic;
    }
    leftAndRight_half0
    {
        type            cyclic;
    }
    frontAndBack
    {
        type            empty;
    }
}


// ************************************************************************* //
