/*--------------------------------*- C++ -*----------------------------------*\
  =========                 |
  \\      /  F ield         | OpenFOAM: The Open Source CFD Toolbox
   \\    /   O peration     | Website:  https://openfoam.org
    \\  /    A nd           | Version:  9
     \\/     M anipulation  |
\*---------------------------------------------------------------------------*/
FoamFile
{
    format      ascii;
    class       volScalarField;
    location    "0.25";
    object      f_0;
}
// * * * * * * * * * * * * * * * * * * * * * * * * * * * * * * * * * * * * * //

dimensions      [1 -3 0 0 0 0 0];

internalField   nonuniform List<scalar> 
1000
(
666.667
666.667
666.667
666.667
666.667
666.667
666.667
666.667
666.667
666.667
666.667
666.667
666.667
666.667
666.667
666.667
666.667
666.667
666.667
666.667
666.667
666.667
666.667
666.667
666.667
666.667
666.667
666.667
666.667
666.667
666.667
666.667
666.667
666.667
666.667
666.667
666.667
666.667
666.667
666.667
666.667
666.667
666.667
666.667
666.667
666.667
666.667
666.667
666.667
666.667
666.667
666.667
666.667
666.667
666.667
666.667
666.667
666.667
666.667
666.667
666.667
666.667
666.667
666.667
666.667
666.667
666.667
666.667
666.667
666.667
666.667
666.667
666.667
666.667
666.667
666.667
666.667
666.667
666.667
666.667
666.667
666.667
666.667
666.667
666.667
666.667
666.667
666.667
666.667
666.667
666.667
666.667
666.667
666.667
666.667
666.667
666.667
666.667
666.667
666.667
666.667
666.667
666.667
666.667
666.667
666.667
666.667
666.667
666.667
666.667
666.667
666.667
666.667
666.667
666.667
666.667
666.667
666.667
666.667
666.667
666.667
666.667
666.667
666.667
666.667
666.667
666.667
666.667
666.667
666.667
666.667
666.667
666.667
666.667
666.667
666.667
666.667
666.667
666.667
666.667
666.667
666.667
666.667
666.667
666.667
666.667
666.667
666.667
666.667
666.667
666.667
666.667
666.667
666.667
666.667
666.667
666.667
666.667
666.667
666.667
666.667
666.667
666.667
666.667
666.667
666.667
666.667
666.667
666.667
666.667
666.667
666.667
666.667
666.667
666.667
666.667
666.667
666.667
666.667
666.667
666.667
666.667
666.667
666.667
666.667
666.667
666.667
666.667
666.667
666.667
666.667
666.667
666.667
666.667
666.667
666.667
666.667
666.667
666.667
666.667
666.667
666.667
666.667
666.667
666.667
666.667
666.667
666.667
666.667
666.667
666.667
666.667
666.667
666.667
666.667
666.667
666.667
666.667
666.667
666.667
666.667
666.667
666.667
666.667
666.667
666.667
666.667
666.667
666.667
666.667
666.667
666.667
666.667
666.667
666.667
666.667
666.667
666.667
666.667
666.667
666.667
666.667
666.667
666.667
666.667
666.667
666.667
666.667
666.666
666.666
666.666
666.666
666.666
666.666
666.666
666.666
666.666
666.666
666.666
666.666
666.666
666.666
666.666
666.666
666.666
666.666
666.666
666.666
666.666
666.666
666.666
666.666
666.666
666.666
666.666
666.666
666.666
666.666
666.666
666.665
666.665
666.665
666.665
666.665
666.665
666.665
666.665
666.665
666.665
666.665
666.664
666.664
666.664
666.664
666.664
666.664
666.664
666.663
666.663
666.663
666.663
666.663
666.662
666.662
666.662
666.662
666.662
666.661
666.661
666.661
666.66
666.66
666.66
666.66
666.659
666.659
666.659
666.658
666.658
666.657
666.657
666.657
666.656
666.656
666.655
666.655
666.654
666.654
666.653
666.653
666.652
666.651
666.651
666.65
666.649
666.649
666.648
666.647
666.647
666.646
666.645
666.644
666.644
666.643
666.642
666.641
666.64
666.639
666.638
666.637
666.636
666.635
666.634
666.633
666.632
666.631
666.63
666.629
666.628
666.627
666.625
666.624
666.623
666.622
666.621
666.619
666.618
666.617
666.615
666.614
666.612
666.611
666.61
666.608
666.607
666.605
666.604
666.602
666.601
666.599
666.598
666.596
666.594
666.593
666.591
666.59
666.588
666.586
666.585
666.583
666.581
666.58
666.578
666.576
666.575
666.573
666.571
666.569
666.568
666.566
666.564
666.562
666.56
666.559
666.557
666.555
666.553
666.552
666.55
666.548
666.546
666.544
666.543
666.541
666.539
666.537
666.536
666.534
666.532
666.53
666.529
666.527
666.525
666.523
666.522
666.52
666.518
666.516
666.515
666.513
666.511
666.51
666.508
666.506
666.505
666.503
666.501
666.5
666.498
666.497
666.495
666.493
666.492
666.49
666.489
666.487
666.486
666.484
666.483
666.481
666.48
666.478
666.477
666.475
666.474
666.473
666.471
666.47
666.468
666.467
666.466
666.464
666.463
666.462
666.46
666.459
666.458
666.457
666.455
666.454
666.453
666.452
666.451
666.45
666.448
666.447
666.446
666.445
666.444
666.443
666.442
666.441
666.44
666.439
666.438
666.437
666.436
666.435
666.434
666.433
666.432
666.431
666.43
666.429
666.428
666.428
666.427
666.426
666.425
666.424
666.423
666.423
666.422
666.421
666.42
666.42
666.419
666.418
666.418
666.417
666.416
666.416
666.415
666.414
666.414
666.413
666.412
666.412
666.411
666.411
666.41
666.41
666.409
666.409
666.408
666.408
666.407
666.407
666.406
666.406
666.406
666.405
666.405
666.404
666.404
666.404
666.404
666.403
666.403
666.403
666.402
666.402
666.402
666.402
666.402
666.402
666.401
666.401
666.401
666.401
666.401
666.401
666.401
666.401
666.401
666.401
666.401
666.402
666.402
666.402
666.402
666.403
666.403
666.403
666.404
666.404
666.405
666.405
666.406
666.407
666.407
666.408
666.409
666.41
666.411
666.412
666.413
666.415
666.416
666.418
666.419
666.421
666.423
666.425
666.427
666.429
666.431
666.434
666.437
666.44
666.443
666.446
666.45
666.454
666.458
666.462
666.467
666.472
666.477
666.483
666.489
666.495
666.502
666.509
666.517
666.525
666.534
666.543
666.553
666.564
666.575
666.587
666.599
666.613
666.627
666.642
666.658
666.675
666.692
666.711
666.731
666.752
666.774
666.797
666.821
666.846
666.872
666.9
666.928
666.958
666.989
667.021
667.053
667.087
667.121
667.156
667.192
667.228
667.264
667.3
667.336
667.372
667.408
667.442
667.476
667.508
667.539
667.568
667.595
667.62
667.642
667.662
667.679
667.693
667.704
667.711
667.716
667.717
667.715
667.709
667.701
667.689
667.675
667.658
667.639
667.617
667.594
667.568
667.541
667.513
667.483
667.453
667.423
667.391
667.36
667.329
667.298
667.267
667.237
667.207
667.178
667.15
667.123
667.097
667.071
667.047
667.024
667.002
666.98
666.96
666.941
666.923
666.906
666.89
666.875
666.86
666.847
666.834
666.822
666.811
666.801
666.791
666.782
666.773
666.766
666.758
666.751
666.745
666.739
666.734
666.729
666.724
666.719
666.715
666.712
666.708
666.705
666.702
666.699
666.697
666.694
666.692
666.69
666.688
666.687
666.685
666.684
666.682
666.681
666.68
666.679
666.678
666.677
666.676
666.675
666.675
666.674
666.673
666.673
666.672
666.672
666.671
666.671
666.671
666.67
666.67
666.67
666.67
666.669
666.669
666.669
666.669
666.669
666.668
666.668
666.668
666.668
666.668
666.668
666.668
666.668
666.668
666.667
666.667
666.667
666.667
666.667
666.667
666.667
666.667
666.667
666.667
666.667
666.667
666.667
666.667
666.667
666.667
666.667
666.667
666.667
666.667
666.667
666.667
666.667
666.667
666.667
666.667
666.667
666.667
666.667
666.667
666.667
666.667
666.667
666.667
666.667
666.667
666.667
666.667
666.667
666.667
666.667
666.667
666.667
666.667
666.667
666.667
666.667
666.667
666.667
666.667
666.667
666.667
666.667
666.667
666.667
666.667
666.667
666.667
666.667
666.667
666.667
666.667
666.667
666.667
666.667
666.667
666.667
666.667
666.667
666.667
666.667
666.667
666.667
666.667
666.667
666.667
666.667
666.667
666.667
666.667
666.667
666.667
666.667
666.667
666.667
666.667
666.667
666.667
666.667
666.667
666.667
666.667
666.667
666.667
666.667
666.667
666.667
666.667
666.667
666.667
666.667
666.667
666.667
666.667
666.667
666.667
666.667
666.667
666.667
666.667
666.667
666.667
666.667
666.667
666.667
666.667
666.667
666.667
666.667
666.667
666.667
666.667
666.667
666.667
666.667
666.667
666.667
666.667
666.667
666.667
666.667
666.667
666.667
666.667
666.667
666.667
666.667
666.667
666.667
666.667
666.667
666.667
666.667
666.667
666.667
666.667
666.667
666.667
666.667
666.667
666.667
666.667
666.667
666.667
666.667
666.667
666.667
666.667
666.667
666.667
666.667
666.667
666.667
666.667
666.667
666.667
666.667
666.667
666.667
666.667
666.667
666.667
666.667
666.667
666.667
666.667
666.667
666.667
666.667
666.667
666.667
666.667
666.667
666.667
666.667
666.667
666.667
666.667
666.667
666.667
666.667
666.667
666.667
666.667
666.667
666.667
666.667
666.667
666.667
666.667
666.667
666.667
666.667
666.667
666.667
666.667
666.667
666.667
666.667
666.667
666.667
666.667
666.667
666.667
666.667
666.667
666.667
666.667
666.667
666.667
666.667
666.667
666.667
666.667
666.667
666.667
666.667
666.667
666.667
666.667
666.667
666.667
666.667
666.667
666.667
666.667
666.667
666.667
)
;

boundaryField
{
    topWall
    {
        type            empty;
    }
    bottomWall
    {
        type            empty;
    }
    leftAndRight_half1
    {
        type            cyclic;
    }
    leftAndRight_half0
    {
        type            cyclic;
    }
    frontAndBack
    {
        type            empty;
    }
}


// ************************************************************************* //
