/*--------------------------------*- C++ -*----------------------------------*\
  =========                 |
  \\      /  F ield         | OpenFOAM: The Open Source CFD Toolbox
   \\    /   O peration     | Website:  https://openfoam.org
    \\  /    A nd           | Version:  9
     \\/     M anipulation  |
\*---------------------------------------------------------------------------*/
FoamFile
{
    format      ascii;
    class       volScalarField;
    location    "0.25";
    object      f_1;
}
// * * * * * * * * * * * * * * * * * * * * * * * * * * * * * * * * * * * * * //

dimensions      [1 -3 0 0 0 0 0];

internalField   nonuniform List<scalar> 
1000
(
168.881
168.881
168.881
168.881
168.881
168.881
168.881
168.881
168.881
168.881
168.881
168.881
168.881
168.881
168.881
168.881
168.881
168.881
168.881
168.881
168.881
168.881
168.881
168.881
168.881
168.881
168.881
168.881
168.881
168.881
168.881
168.881
168.881
168.881
168.881
168.881
168.881
168.881
168.881
168.881
168.881
168.881
168.881
168.881
168.881
168.881
168.881
168.881
168.881
168.881
168.881
168.881
168.881
168.881
168.881
168.881
168.881
168.881
168.881
168.881
168.881
168.881
168.881
168.881
168.881
168.881
168.881
168.881
168.881
168.881
168.881
168.881
168.881
168.881
168.881
168.881
168.881
168.881
168.881
168.881
168.881
168.881
168.881
168.881
168.881
168.881
168.881
168.881
168.881
168.881
168.881
168.881
168.881
168.881
168.881
168.881
168.881
168.881
168.881
168.881
168.881
168.881
168.881
168.881
168.881
168.881
168.881
168.881
168.881
168.881
168.881
168.881
168.881
168.881
168.881
168.881
168.881
168.881
168.881
168.881
168.881
168.881
168.881
168.881
168.881
168.881
168.881
168.881
168.881
168.881
168.881
168.881
168.881
168.881
168.881
168.881
168.881
168.881
168.881
168.881
168.881
168.881
168.881
168.881
168.881
168.881
168.881
168.881
168.881
168.881
168.881
168.881
168.881
168.881
168.881
168.881
168.881
168.881
168.881
168.881
168.881
168.881
168.881
168.881
168.881
168.881
168.881
168.881
168.881
168.881
168.881
168.881
168.881
168.881
168.881
168.881
168.881
168.881
168.881
168.881
168.881
168.881
168.881
168.881
168.881
168.881
168.881
168.881
168.881
168.881
168.881
168.881
168.881
168.881
168.881
168.881
168.881
168.881
168.881
168.881
168.881
168.881
168.881
168.881
168.881
168.881
168.881
168.881
168.881
168.881
168.881
168.881
168.881
168.881
168.881
168.881
168.881
168.881
168.881
168.881
168.881
168.881
168.881
168.881
168.881
168.881
168.881
168.881
168.881
168.881
168.881
168.881
168.882
168.882
168.882
168.882
168.882
168.882
168.882
168.882
168.882
168.882
168.882
168.882
168.882
168.882
168.882
168.882
168.882
168.882
168.882
168.883
168.883
168.883
168.883
168.883
168.883
168.883
168.883
168.884
168.884
168.884
168.884
168.884
168.884
168.885
168.885
168.885
168.886
168.886
168.886
168.886
168.887
168.887
168.888
168.888
168.889
168.889
168.89
168.89
168.891
168.891
168.892
168.893
168.893
168.894
168.895
168.896
168.897
168.898
168.899
168.9
168.901
168.902
168.904
168.905
168.906
168.908
168.909
168.911
168.913
168.915
168.917
168.919
168.921
168.923
168.926
168.928
168.931
168.933
168.936
168.939
168.943
168.946
168.949
168.953
168.957
168.961
168.965
168.969
168.974
168.979
168.984
168.989
168.994
169
169.006
169.012
169.018
169.025
169.032
169.039
169.047
169.055
169.063
169.071
169.08
169.089
169.099
169.109
169.119
169.13
169.141
169.152
169.164
169.176
169.189
169.202
169.215
169.229
169.244
169.259
169.274
169.29
169.307
169.324
169.342
169.36
169.378
169.398
169.418
169.438
169.459
169.481
169.503
169.526
169.55
169.574
169.599
169.624
169.651
169.678
169.706
169.734
169.763
169.793
169.824
169.855
169.887
169.92
169.954
169.989
170.024
170.06
170.097
170.135
170.174
170.213
170.253
170.294
170.337
170.379
170.423
170.468
170.513
170.56
170.607
170.655
170.704
170.754
170.805
170.857
170.91
170.964
171.018
171.074
171.13
171.188
171.246
171.305
171.365
171.427
171.489
171.552
171.616
171.681
171.746
171.813
171.881
171.95
172.019
172.09
172.161
172.234
172.307
172.381
172.456
172.533
172.61
172.688
172.766
172.846
172.927
173.009
173.091
173.175
173.259
173.344
173.43
173.517
173.605
173.694
173.784
173.874
173.966
174.058
174.151
174.245
174.34
174.435
174.532
174.629
174.727
174.826
174.926
175.027
175.128
175.23
175.333
175.437
175.542
175.647
175.753
175.86
175.968
176.076
176.185
176.295
176.406
176.517
176.629
176.742
176.855
176.969
177.084
177.2
177.316
177.433
177.551
177.669
177.788
177.908
178.028
178.149
178.27
178.393
178.516
178.639
178.763
178.888
179.013
179.139
179.265
179.392
179.52
179.648
179.777
179.906
180.036
180.167
180.298
180.429
180.562
180.694
180.827
180.961
181.095
181.23
181.365
181.501
181.637
181.773
181.911
182.048
182.186
182.325
182.464
182.603
182.743
182.883
183.024
183.165
183.307
183.449
183.591
183.734
183.877
184.02
184.164
184.309
184.453
184.598
184.744
184.889
185.035
185.182
185.328
185.475
185.623
185.77
185.918
186.066
186.214
186.363
186.512
186.661
186.811
186.96
187.11
187.26
187.41
187.56
187.711
187.861
188.012
188.163
188.314
188.465
188.616
188.767
188.918
189.07
189.221
189.372
189.523
189.674
189.825
189.975
190.126
190.276
190.426
190.576
190.726
190.875
191.024
191.172
191.32
191.468
191.615
191.761
191.907
192.051
192.196
192.339
192.481
192.622
192.762
192.901
193.039
193.175
193.31
193.443
193.574
193.704
193.831
193.957
194.08
194.2
194.318
194.433
194.546
194.654
194.76
194.861
194.959
195.053
195.141
195.225
195.304
195.378
195.445
195.507
195.562
195.609
195.65
195.682
195.706
195.721
195.726
195.722
195.707
195.68
195.642
195.592
195.529
195.452
195.361
195.255
195.133
194.996
194.841
194.67
194.48
194.272
194.044
193.798
193.532
193.245
192.938
192.611
192.264
191.896
191.508
191.1
190.672
190.226
189.762
189.281
188.783
188.271
187.744
187.206
186.656
186.097
185.531
184.959
184.382
183.804
183.225
182.648
182.073
181.504
180.941
180.386
179.841
179.307
178.785
178.276
177.781
177.302
176.838
176.39
175.959
175.545
175.149
174.769
174.407
174.062
173.734
173.422
173.127
172.847
172.583
172.334
172.099
171.878
171.67
171.475
171.292
171.121
170.961
170.811
170.671
170.54
170.419
170.305
170.199
170.101
170.01
169.925
169.846
169.773
169.705
169.642
169.583
169.529
169.479
169.433
169.39
169.351
169.314
169.28
169.249
169.22
169.193
169.169
169.146
169.125
169.106
169.088
169.071
169.056
169.042
169.029
169.018
169.007
168.997
168.987
168.979
168.971
168.964
168.957
168.951
168.945
168.94
168.935
168.931
168.927
168.923
168.92
168.917
168.914
168.911
168.909
168.907
168.905
168.903
168.901
168.899
168.898
168.896
168.895
168.894
168.893
168.892
168.891
168.89
168.89
168.889
168.888
168.888
168.887
168.887
168.886
168.886
168.885
168.885
168.885
168.885
168.884
168.884
168.884
168.884
168.883
168.883
168.883
168.883
168.883
168.883
168.882
168.882
168.882
168.882
168.882
168.882
168.882
168.882
168.882
168.882
168.882
168.882
168.882
168.882
168.882
168.882
168.882
168.881
168.881
168.881
168.881
168.881
168.881
168.881
168.881
168.881
168.881
168.881
168.881
168.881
168.881
168.881
168.881
168.881
168.881
168.881
168.881
168.881
168.881
168.881
168.881
168.881
168.881
168.881
168.881
168.881
168.881
168.881
168.881
168.881
168.881
168.881
168.881
168.881
168.881
168.881
168.881
168.881
168.881
168.881
168.881
168.881
168.881
168.881
168.881
168.881
168.881
168.881
168.881
168.881
168.881
168.881
168.881
168.881
168.881
168.881
168.881
168.881
168.881
168.881
168.881
168.881
168.881
168.881
168.881
168.881
168.881
168.881
168.881
168.881
168.881
168.881
168.881
168.881
168.881
168.881
168.881
168.881
168.881
168.881
168.881
168.881
168.881
168.881
168.881
168.881
168.881
168.881
168.881
168.881
168.881
168.881
168.881
168.881
168.881
168.881
168.881
168.881
168.881
168.881
168.881
168.881
168.881
168.881
168.881
168.881
168.881
168.881
168.881
168.881
168.881
168.881
168.881
168.881
168.881
168.881
168.881
168.881
168.881
168.881
168.881
168.881
168.881
168.881
168.881
168.881
168.881
168.881
168.881
168.881
168.881
168.881
168.881
168.881
168.881
168.881
168.881
168.881
168.881
168.881
168.881
168.881
168.881
168.881
168.881
168.881
168.881
168.881
168.881
168.881
168.881
168.881
168.881
168.881
168.881
168.881
168.881
168.881
168.881
168.881
168.881
168.881
168.881
168.881
168.881
168.881
168.881
168.881
168.881
168.881
168.881
168.881
168.881
168.881
168.881
168.881
168.881
168.881
168.881
168.881
168.881
168.881
168.881
168.881
168.881
168.881
168.881
168.881
168.881
168.881
168.881
168.881
168.881
168.881
168.881
168.881
168.881
168.881
168.881
168.881
168.881
)
;

boundaryField
{
    topWall
    {
        type            empty;
    }
    bottomWall
    {
        type            empty;
    }
    leftAndRight_half1
    {
        type            cyclic;
    }
    leftAndRight_half0
    {
        type            cyclic;
    }
    frontAndBack
    {
        type            empty;
    }
}


// ************************************************************************* //
