/*--------------------------------*- C++ -*----------------------------------*\
  =========                 |
  \\      /  F ield         | OpenFOAM: The Open Source CFD Toolbox
   \\    /   O peration     | Website:  https://openfoam.org
    \\  /    A nd           | Version:  9
     \\/     M anipulation  |
\*---------------------------------------------------------------------------*/
FoamFile
{
    format      ascii;
    class       volScalarField;
    location    "0.25";
    object      f_2;
}
// * * * * * * * * * * * * * * * * * * * * * * * * * * * * * * * * * * * * * //

dimensions      [1 -3 0 0 0 0 0];

internalField   nonuniform List<scalar> 
1000
(
164.481
164.481
164.481
164.481
164.481
164.481
164.481
164.481
164.481
164.481
164.481
164.481
164.481
164.481
164.481
164.481
164.481
164.481
164.481
164.481
164.481
164.481
164.481
164.481
164.481
164.481
164.481
164.481
164.481
164.481
164.481
164.481
164.481
164.481
164.481
164.481
164.481
164.481
164.481
164.481
164.481
164.481
164.481
164.481
164.481
164.481
164.481
164.481
164.481
164.481
164.481
164.481
164.481
164.481
164.481
164.481
164.481
164.481
164.481
164.481
164.481
164.481
164.481
164.481
164.481
164.481
164.481
164.481
164.481
164.481
164.481
164.481
164.481
164.481
164.481
164.481
164.481
164.481
164.481
164.481
164.481
164.481
164.481
164.481
164.481
164.481
164.481
164.481
164.481
164.481
164.481
164.481
164.481
164.481
164.481
164.481
164.481
164.481
164.481
164.481
164.481
164.481
164.481
164.481
164.481
164.481
164.481
164.481
164.481
164.481
164.481
164.481
164.481
164.481
164.481
164.481
164.481
164.481
164.481
164.481
164.481
164.481
164.481
164.481
164.481
164.481
164.481
164.481
164.481
164.481
164.481
164.481
164.481
164.481
164.481
164.481
164.481
164.481
164.481
164.481
164.481
164.481
164.481
164.481
164.481
164.481
164.481
164.481
164.481
164.481
164.481
164.481
164.481
164.481
164.481
164.481
164.481
164.481
164.481
164.481
164.481
164.481
164.481
164.481
164.481
164.481
164.481
164.481
164.481
164.481
164.481
164.481
164.481
164.481
164.481
164.481
164.481
164.481
164.481
164.481
164.481
164.481
164.481
164.481
164.481
164.481
164.481
164.481
164.481
164.481
164.481
164.481
164.481
164.481
164.481
164.481
164.481
164.481
164.481
164.481
164.481
164.481
164.481
164.481
164.481
164.481
164.481
164.481
164.481
164.481
164.481
164.481
164.481
164.481
164.481
164.481
164.481
164.481
164.481
164.481
164.481
164.481
164.481
164.481
164.481
164.481
164.481
164.481
164.481
164.481
164.481
164.481
164.481
164.481
164.481
164.481
164.481
164.481
164.481
164.481
164.48
164.48
164.48
164.48
164.48
164.48
164.48
164.48
164.48
164.48
164.48
164.48
164.48
164.479
164.479
164.479
164.479
164.479
164.479
164.478
164.478
164.478
164.478
164.478
164.477
164.477
164.477
164.476
164.476
164.476
164.475
164.475
164.475
164.474
164.474
164.473
164.473
164.472
164.472
164.471
164.47
164.47
164.469
164.468
164.467
164.466
164.465
164.464
164.463
164.462
164.461
164.46
164.459
164.457
164.456
164.454
164.453
164.451
164.449
164.447
164.445
164.443
164.441
164.439
164.437
164.434
164.431
164.429
164.426
164.423
164.42
164.416
164.413
164.409
164.405
164.401
164.397
164.393
164.388
164.383
164.378
164.373
164.368
164.362
164.356
164.35
164.344
164.337
164.33
164.323
164.315
164.308
164.3
164.291
164.282
164.273
164.264
164.254
164.244
164.233
164.222
164.211
164.199
164.187
164.175
164.162
164.148
164.134
164.12
164.105
164.09
164.074
164.058
164.041
164.024
164.006
163.987
163.968
163.949
163.929
163.908
163.887
163.865
163.842
163.819
163.795
163.771
163.746
163.72
163.693
163.666
163.638
163.61
163.58
163.551
163.52
163.488
163.456
163.423
163.39
163.355
163.32
163.284
163.247
163.21
163.171
163.132
163.092
163.052
163.01
162.968
162.925
162.881
162.836
162.79
162.744
162.696
162.648
162.599
162.549
162.499
162.447
162.395
162.341
162.287
162.232
162.177
162.12
162.063
162.004
161.945
161.885
161.824
161.763
161.7
161.637
161.573
161.507
161.442
161.375
161.307
161.239
161.17
161.1
161.029
160.958
160.885
160.812
160.738
160.664
160.588
160.512
160.435
160.357
160.279
160.199
160.119
160.039
159.957
159.875
159.792
159.708
159.624
159.539
159.453
159.367
159.28
159.192
159.104
159.015
158.925
158.834
158.743
158.652
158.56
158.467
158.373
158.279
158.185
158.089
157.993
157.897
157.8
157.703
157.605
157.506
157.407
157.307
157.207
157.107
157.006
156.904
156.802
156.699
156.596
156.493
156.389
156.284
156.179
156.074
155.968
155.862
155.756
155.649
155.541
155.434
155.325
155.217
155.108
154.999
154.889
154.779
154.669
154.558
154.447
154.336
154.225
154.113
154.001
153.888
153.775
153.662
153.549
153.435
153.322
153.207
153.093
152.978
152.864
152.749
152.633
152.518
152.402
152.286
152.17
152.054
151.937
151.821
151.704
151.587
151.47
151.352
151.235
151.117
151
150.882
150.764
150.646
150.528
150.409
150.291
150.172
150.054
149.935
149.817
149.698
149.579
149.46
149.341
149.222
149.104
148.985
148.866
148.747
148.628
148.509
148.39
148.271
148.153
148.034
147.915
147.797
147.678
147.56
147.442
147.324
147.206
147.088
146.971
146.853
146.736
146.619
146.503
146.386
146.27
146.154
146.039
145.924
145.809
145.695
145.581
145.467
145.354
145.242
145.13
145.019
144.908
144.798
144.688
144.58
144.472
144.365
144.259
144.154
144.05
143.947
143.845
143.744
143.645
143.547
143.451
143.356
143.263
143.171
143.082
142.994
142.909
142.825
142.745
142.667
142.591
142.519
142.449
142.383
142.32
142.261
142.206
142.155
142.109
142.067
142.031
141.999
141.973
141.954
141.94
141.933
141.934
141.941
141.957
141.981
142.014
142.056
142.108
142.169
142.242
142.326
142.421
142.529
142.649
142.783
142.93
143.091
143.267
143.458
143.664
143.885
144.123
144.377
144.646
144.933
145.235
145.554
145.889
146.239
146.605
146.985
147.38
147.787
148.208
148.64
149.082
149.534
149.994
150.46
150.932
151.408
151.886
152.365
152.844
153.321
153.795
154.264
154.726
155.182
155.629
156.067
156.494
156.909
157.313
157.704
158.082
158.446
158.796
159.132
159.454
159.761
160.054
160.334
160.599
160.85
161.089
161.314
161.527
161.727
161.916
162.094
162.26
162.417
162.563
162.7
162.829
162.949
163.06
163.165
163.262
163.353
163.437
163.515
163.588
163.656
163.718
163.776
163.83
163.88
163.927
163.97
164.009
164.046
164.08
164.111
164.14
164.167
164.192
164.215
164.236
164.255
164.273
164.29
164.305
164.319
164.332
164.344
164.355
164.365
164.374
164.383
164.391
164.398
164.405
164.411
164.416
164.422
164.426
164.431
164.435
164.439
164.442
164.445
164.448
164.451
164.453
164.456
164.458
164.46
164.461
164.463
164.464
164.466
164.467
164.468
164.469
164.47
164.471
164.472
164.473
164.473
164.474
164.475
164.475
164.476
164.476
164.476
164.477
164.477
164.478
164.478
164.478
164.478
164.479
164.479
164.479
164.479
164.479
164.479
164.48
164.48
164.48
164.48
164.48
164.48
164.48
164.48
164.48
164.48
164.481
164.481
164.481
164.481
164.481
164.481
164.481
164.481
164.481
164.481
164.481
164.481
164.481
164.481
164.481
164.481
164.481
164.481
164.481
164.481
164.481
164.481
164.481
164.481
164.481
164.481
164.481
164.481
164.481
164.481
164.481
164.481
164.481
164.481
164.481
164.481
164.481
164.481
164.481
164.481
164.481
164.481
164.481
164.481
164.481
164.481
164.481
164.481
164.481
164.481
164.481
164.481
164.481
164.481
164.481
164.481
164.481
164.481
164.481
164.481
164.481
164.481
164.481
164.481
164.481
164.481
164.481
164.481
164.481
164.481
164.481
164.481
164.481
164.481
164.481
164.481
164.481
164.481
164.481
164.481
164.481
164.481
164.481
164.481
164.481
164.481
164.481
164.481
164.481
164.481
164.481
164.481
164.481
164.481
164.481
164.481
164.481
164.481
164.481
164.481
164.481
164.481
164.481
164.481
164.481
164.481
164.481
164.481
164.481
164.481
164.481
164.481
164.481
164.481
164.481
164.481
164.481
164.481
164.481
164.481
164.481
164.481
164.481
164.481
164.481
164.481
164.481
164.481
164.481
164.481
164.481
164.481
164.481
164.481
164.481
164.481
164.481
164.481
164.481
164.481
164.481
164.481
164.481
164.481
164.481
164.481
164.481
164.481
164.481
164.481
164.481
164.481
164.481
164.481
164.481
164.481
164.481
164.481
164.481
164.481
164.481
164.481
164.481
164.481
164.481
164.481
164.481
164.481
164.481
164.481
164.481
164.481
164.481
164.481
164.481
164.481
164.481
164.481
164.481
164.481
164.481
164.481
164.481
164.481
164.481
164.481
164.481
164.481
164.481
164.481
164.481
164.481
164.481
164.481
164.481
164.481
164.481
164.481
164.481
164.481
164.481
164.481
164.481
164.481
164.481
164.481
164.481
164.481
164.481
164.481
164.481
164.481
164.481
164.481
164.481
164.481
)
;

boundaryField
{
    topWall
    {
        type            empty;
    }
    bottomWall
    {
        type            empty;
    }
    leftAndRight_half1
    {
        type            cyclic;
    }
    leftAndRight_half0
    {
        type            cyclic;
    }
    frontAndBack
    {
        type            empty;
    }
}


// ************************************************************************* //
