/*--------------------------------*- C++ -*----------------------------------*\
  =========                 |
  \\      /  F ield         | OpenFOAM: The Open Source CFD Toolbox
   \\    /   O peration     | Website:  https://openfoam.org
    \\  /    A nd           | Version:  9
     \\/     M anipulation  |
\*---------------------------------------------------------------------------*/
FoamFile
{
    format      ascii;
    class       volScalarField;
    location    "0.25";
    object      p;
}
// * * * * * * * * * * * * * * * * * * * * * * * * * * * * * * * * * * * * * //

dimensions      [1 -1 -2 0 0 0 0];

internalField   nonuniform List<scalar> 
1000
(
100097
100097
100097
100097
100097
100097
100097
100097
100097
100097
100097
100097
100097
100097
100097
100097
100097
100097
100097
100097
100097
100097
100097
100097
100097
100097
100097
100097
100097
100097
100097
100097
100097
100097
100097
100097
100097
100097
100097
100097
100097
100097
100097
100097
100097
100097
100097
100097
100097
100097
100097
100097
100097
100097
100097
100097
100097
100097
100097
100097
100097
100097
100097
100097
100097
100097
100097
100097
100097
100097
100097
100097
100097
100097
100097
100097
100097
100097
100097
100097
100097
100097
100097
100097
100097
100097
100097
100097
100097
100097
100097
100097
100097
100097
100097
100097
100097
100097
100097
100097
100097
100097
100097
100097
100097
100097
100097
100097
100097
100097
100097
100097
100097
100097
100097
100097
100097
100097
100097
100097
100097
100097
100097
100097
100097
100097
100097
100097
100097
100097
100097
100097
100097
100097
100097
100097
100097
100097
100097
100097
100097
100097
100097
100097
100097
100097
100097
100097
100097
100097
100097
100097
100097
100097
100097
100097
100097
100097
100097
100097
100097
100097
100097
100097
100097
100097
100097
100097
100097
100097
100097
100097
100097
100097
100097
100097
100097
100097
100097
100097
100097
100097
100097
100097
100097
100097
100097
100097
100097
100097
100097
100097
100097
100097
100097
100097
100097
100097
100097
100097
100097
100097
100097
100097
100097
100097
100097
100097
100097
100097
100097
100097
100097
100097
100097
100097
100097
100097
100097
100097
100097
100097
100097
100097
100097
100097
100097
100097
100097
100096
100096
100096
100096
100096
100096
100096
100096
100096
100096
100096
100096
100096
100096
100096
100096
100096
100096
100096
100096
100096
100095
100095
100095
100095
100095
100095
100095
100095
100094
100094
100094
100094
100094
100094
100093
100093
100093
100093
100092
100092
100092
100092
100091
100091
100091
100090
100090
100089
100089
100088
100088
100087
100087
100086
100086
100085
100084
100084
100083
100082
100081
100080
100080
100079
100078
100077
100075
100074
100073
100072
100071
100069
100068
100067
100065
100063
100062
100060
100058
100057
100055
100053
100051
100048
100046
100044
100042
100039
100036
100034
100031
100028
100025
100022
100019
100016
100013
100009
100006
100002
99998.5
99994.6
99990.7
99986.6
99982.5
99978.2
99973.9
99969.4
99964.8
99960.1
99955.3
99950.3
99945.3
99940.1
99934.9
99929.5
99924
99918.4
99912.7
99906.9
99901
99895
99888.9
99882.6
99876.3
99869.9
99863.4
99856.8
99850.1
99843.4
99836.5
99829.6
99822.6
99815.6
99808.4
99801.3
99794
99786.7
99779.4
99772
99764.6
99757.1
99749.7
99742.2
99734.7
99727.2
99719.7
99712.2
99704.7
99697.2
99689.8
99682.4
99675.1
99667.8
99660.5
99653.4
99646.3
99639.3
99632.4
99625.6
99618.9
99612.3
99605.9
99599.5
99593.4
99587.4
99581.6
99575.9
99570.4
99565.2
99560.1
99555.2
99550.6
99546.2
99542.1
99538.2
99534.5
99531.2
99528.1
99525.4
99522.9
99520.8
99518.9
99517.5
99516.3
99515.5
99515.1
99515.1
99515.4
99516.2
99517.4
99518.9
99520.9
99523.4
99526.3
99529.6
99533.4
99537.7
99542.4
99547.7
99553.5
99559.7
99566.5
99573.9
99581.7
99590.1
99599.1
99608.7
99618.8
99629.5
99640.8
99652.6
99665.1
99678.3
99692
99706.4
99721.4
99737
99753.3
99770.3
99788
99806.3
99825.3
99845
99865.4
99886.5
99908.3
99930.8
99954.1
99978.1
100003
100028
100054
100081
100109
100138
100167
100197
100228
100259
100292
100325
100359
100394
100430
100466
100503
100541
100580
100620
100661
100702
100745
100788
100832
100877
100922
100969
101016
101065
101114
101164
101215
101267
101320
101374
101428
101484
101540
101597
101655
101715
101775
101835
101897
101960
102024
102088
102154
102220
102288
102356
102425
102495
102567
102639
102712
102785
102860
102936
103013
103091
103169
103249
103329
103411
103493
103576
103661
103746
103832
103919
104007
104097
104187
104277
104369
104462
104556
104651
104746
104843
104941
105039
105139
105239
105340
105443
105546
105650
105755
105861
105968
106076
106185
106294
106405
106517
106629
106743
106857
106972
107088
107205
107323
107442
107562
107682
107804
107926
108049
108173
108298
108424
108550
108677
108806
108935
109064
109195
109326
109458
109591
109724
109859
109994
110129
110265
110402
110540
110678
110816
110956
111095
111235
111376
111517
111658
111800
111942
112084
112226
112369
112511
112654
112796
112938
113080
113221
113362
113503
113642
113781
113919
114055
114190
114324
114456
114586
114713
114838
114960
115079
115194
115306
115413
115515
115612
115703
115788
115867
115937
116000
116053
116097
116131
116154
116165
116163
116148
116118
116074
116014
115937
115843
115732
115602
115454
115287
115101
114895
114671
114428
114167
113888
113592
113280
112953
112613
112260
111896
111523
111142
110755
110363
109969
109573
109178
108785
108395
108010
107631
107260
106896
106542
106198
105864
105542
105231
104932
104646
104371
104109
103859
103621
103395
103181
102978
102787
102606
102436
102275
102125
101983
101851
101726
101610
101501
101399
101305
101216
101134
101057
100985
100919
100857
100800
100747
100697
100651
100609
100570
100533
100499
100468
100439
100413
100388
100365
100344
100325
100307
100290
100275
100261
100248
100236
100225
100214
100205
100196
100188
100181
100174
100168
100162
100157
100152
100148
100144
100140
100136
100133
100130
100128
100125
100123
100121
100119
100117
100115
100114
100112
100111
100110
100109
100108
100107
100106
100105
100105
100104
100104
100103
100102
100102
100102
100101
100101
100101
100100
100100
100100
100099
100099
100099
100099
100099
100099
100098
100098
100098
100098
100098
100098
100098
100098
100098
100098
100097
100097
100097
100097
100097
100097
100097
100097
100097
100097
100097
100097
100097
100097
100097
100097
100097
100097
100097
100097
100097
100097
100097
100097
100097
100097
100097
100097
100097
100097
100097
100097
100097
100097
100097
100097
100097
100097
100097
100097
100097
100097
100097
100097
100097
100097
100097
100097
100097
100097
100097
100097
100097
100097
100097
100097
100097
100097
100097
100097
100097
100097
100097
100097
100097
100097
100097
100097
100097
100097
100097
100097
100097
100097
100097
100097
100097
100097
100097
100097
100097
100097
100097
100097
100097
100097
100097
100097
100097
100097
100097
100097
100097
100097
100097
100097
100097
100097
100097
100097
100097
100097
100097
100097
100097
100097
100097
100097
100097
100097
100097
100097
100097
100097
100097
100097
100097
100097
100097
100097
100097
100097
100097
100097
100097
100097
100097
100097
100097
100097
100097
100097
100097
100097
100097
100097
100097
100097
100097
100097
100097
100097
100097
100097
100097
100097
100097
100097
100097
100097
100097
100097
100097
100097
100097
100097
100097
100097
100097
100097
100097
100097
100097
100097
100097
100097
100097
100097
100097
100097
100097
100097
100097
100097
100097
100097
100097
100097
100097
100097
100097
100097
100097
100097
100097
100097
100097
100097
100097
100097
100097
100097
100097
100097
100097
100097
100097
100097
100097
100097
100097
100097
100097
100097
100097
100097
100097
100097
100097
100097
100097
)
;

boundaryField
{
    topWall
    {
        type            empty;
    }
    bottomWall
    {
        type            empty;
    }
    leftAndRight_half1
    {
        type            cyclic;
    }
    leftAndRight_half0
    {
        type            cyclic;
    }
    frontAndBack
    {
        type            empty;
    }
}


// ************************************************************************* //
