/*--------------------------------*- C++ -*----------------------------------*\
  =========                 |
  \\      /  F ield         | OpenFOAM: The Open Source CFD Toolbox
   \\    /   O peration     | Website:  https://openfoam.org
    \\  /    A nd           | Version:  9
     \\/     M anipulation  |
\*---------------------------------------------------------------------------*/
FoamFile
{
    format      ascii;
    class       volVectorField;
    location    "0.25";
    object      U;
}
// * * * * * * * * * * * * * * * * * * * * * * * * * * * * * * * * * * * * * //

dimensions      [0 1 -1 0 0 0 0];

internalField   nonuniform List<vector> 
1000
(
(0.439989 0 0)
(0.439989 0 0)
(0.439989 0 0)
(0.439989 0 0)
(0.439989 0 0)
(0.439989 0 0)
(0.439989 0 0)
(0.439989 0 0)
(0.439989 0 0)
(0.439989 0 0)
(0.439989 0 0)
(0.439989 0 0)
(0.439989 0 0)
(0.439989 0 0)
(0.439989 0 0)
(0.439989 0 0)
(0.439989 0 0)
(0.439989 0 0)
(0.439989 0 0)
(0.439989 0 0)
(0.439989 0 0)
(0.439989 0 0)
(0.439989 0 0)
(0.439989 0 0)
(0.439989 0 0)
(0.439989 0 0)
(0.439989 0 0)
(0.439989 0 0)
(0.439989 0 0)
(0.439989 0 0)
(0.439989 0 0)
(0.439989 0 0)
(0.439989 0 0)
(0.439989 0 0)
(0.439989 0 0)
(0.439989 0 0)
(0.439989 0 0)
(0.439989 0 0)
(0.439989 0 0)
(0.439989 0 0)
(0.439989 0 0)
(0.439989 0 0)
(0.439989 0 0)
(0.439989 0 0)
(0.439989 0 0)
(0.439989 0 0)
(0.439989 0 0)
(0.439989 0 0)
(0.439989 0 0)
(0.439989 0 0)
(0.439989 0 0)
(0.439989 0 0)
(0.439989 0 0)
(0.439989 0 0)
(0.439989 0 0)
(0.439989 0 0)
(0.439989 0 0)
(0.439989 0 0)
(0.439989 0 0)
(0.439989 0 0)
(0.439989 0 0)
(0.439989 0 0)
(0.439989 0 0)
(0.439989 0 0)
(0.439989 0 0)
(0.439989 0 0)
(0.439989 0 0)
(0.439989 0 0)
(0.439989 0 0)
(0.439989 0 0)
(0.439989 0 0)
(0.439989 0 0)
(0.439989 0 0)
(0.439989 0 0)
(0.439989 0 0)
(0.439989 0 0)
(0.439989 0 0)
(0.439989 0 0)
(0.439989 0 0)
(0.439989 0 0)
(0.439989 0 0)
(0.439989 0 0)
(0.439989 0 0)
(0.439989 0 0)
(0.439989 0 0)
(0.439989 0 0)
(0.439989 0 0)
(0.439989 0 0)
(0.439989 0 0)
(0.439989 0 0)
(0.439989 0 0)
(0.439989 0 0)
(0.439989 0 0)
(0.439989 0 0)
(0.439989 0 0)
(0.439989 0 0)
(0.439989 0 0)
(0.439989 0 0)
(0.439989 0 0)
(0.439989 0 0)
(0.439989 0 0)
(0.439989 0 0)
(0.439989 0 0)
(0.439989 0 0)
(0.439989 0 0)
(0.439989 0 0)
(0.439989 0 0)
(0.439989 0 0)
(0.439989 0 0)
(0.439989 0 0)
(0.439989 0 0)
(0.439989 0 0)
(0.439989 0 0)
(0.439989 0 0)
(0.439989 0 0)
(0.439989 0 0)
(0.439989 0 0)
(0.439989 0 0)
(0.439989 0 0)
(0.439989 0 0)
(0.439989 0 0)
(0.439989 0 0)
(0.439989 0 0)
(0.439989 0 0)
(0.439989 0 0)
(0.439989 0 0)
(0.439989 0 0)
(0.439989 0 0)
(0.439989 0 0)
(0.439989 0 0)
(0.439989 0 0)
(0.439989 0 0)
(0.439989 0 0)
(0.439989 0 0)
(0.439989 0 0)
(0.439989 0 0)
(0.439989 0 0)
(0.439989 0 0)
(0.439989 0 0)
(0.439989 0 0)
(0.439989 0 0)
(0.439989 0 0)
(0.439989 0 0)
(0.439989 0 0)
(0.439989 0 0)
(0.439989 0 0)
(0.439989 0 0)
(0.439989 0 0)
(0.439989 0 0)
(0.439989 0 0)
(0.439989 0 0)
(0.439989 0 0)
(0.439989 0 0)
(0.439989 0 0)
(0.439989 0 0)
(0.439989 0 0)
(0.439989 0 0)
(0.439989 0 0)
(0.439989 0 0)
(0.439989 0 0)
(0.439989 0 0)
(0.439989 0 0)
(0.439989 0 0)
(0.439989 0 0)
(0.439989 0 0)
(0.439989 0 0)
(0.439989 0 0)
(0.439989 0 0)
(0.439989 0 0)
(0.439989 0 0)
(0.439989 0 0)
(0.439989 0 0)
(0.439989 0 0)
(0.439989 0 0)
(0.439989 0 0)
(0.439989 0 0)
(0.439989 0 0)
(0.439989 0 0)
(0.43999 0 0)
(0.43999 0 0)
(0.43999 0 0)
(0.43999 0 0)
(0.43999 0 0)
(0.43999 0 0)
(0.43999 0 0)
(0.43999 0 0)
(0.43999 0 0)
(0.43999 0 0)
(0.43999 0 0)
(0.439991 0 0)
(0.439991 0 0)
(0.439991 0 0)
(0.439991 0 0)
(0.439991 0 0)
(0.439992 0 0)
(0.439992 0 0)
(0.439992 0 0)
(0.439992 0 0)
(0.439993 0 0)
(0.439993 0 0)
(0.439994 0 0)
(0.439994 0 0)
(0.439994 0 0)
(0.439995 0 0)
(0.439996 0 0)
(0.439996 0 0)
(0.439997 0 0)
(0.439998 0 0)
(0.439998 0 0)
(0.439999 0 0)
(0.44 0 0)
(0.440001 0 0)
(0.440002 0 0)
(0.440003 0 0)
(0.440005 0 0)
(0.440006 0 0)
(0.440007 0 0)
(0.440009 0 0)
(0.440011 0 0)
(0.440013 0 0)
(0.440015 0 0)
(0.440017 0 0)
(0.440019 0 0)
(0.440022 0 0)
(0.440025 0 0)
(0.440028 0 0)
(0.440031 0 0)
(0.440034 0 0)
(0.440038 0 0)
(0.440042 0 0)
(0.440047 0 0)
(0.440052 0 0)
(0.440057 0 0)
(0.440062 0 0)
(0.440068 0 0)
(0.440075 0 0)
(0.440082 0 0)
(0.440089 0 0)
(0.440097 0 0)
(0.440106 0 0)
(0.440115 0 0)
(0.440125 0 0)
(0.440135 0 0)
(0.440147 0 0)
(0.440159 0 0)
(0.440172 0 0)
(0.440187 0 0)
(0.440202 0 0)
(0.440218 0 0)
(0.440236 0 0)
(0.440254 0 0)
(0.440274 0 0)
(0.440296 0 0)
(0.440319 0 0)
(0.440343 0 0)
(0.440369 0 0)
(0.440397 0 0)
(0.440427 0 0)
(0.440459 0 0)
(0.440494 0 0)
(0.44053 0 0)
(0.440569 0 0)
(0.440611 0 0)
(0.440655 0 0)
(0.440702 0 0)
(0.440752 0 0)
(0.440806 0 0)
(0.440863 0 0)
(0.440924 0 0)
(0.440988 0 0)
(0.441057 0 0)
(0.44113 0 0)
(0.441208 0 0)
(0.441291 0 0)
(0.441379 0 0)
(0.441472 0 0)
(0.441571 0 0)
(0.441676 0 0)
(0.441787 0 0)
(0.441905 0 0)
(0.44203 0 0)
(0.442163 0 0)
(0.442303 0 0)
(0.442452 0 0)
(0.44261 0 0)
(0.442776 0 0)
(0.442952 0 0)
(0.443139 0 0)
(0.443335 0 0)
(0.443543 0 0)
(0.443763 0 0)
(0.443995 0 0)
(0.44424 0 0)
(0.444498 0 0)
(0.44477 0 0)
(0.445057 0 0)
(0.44536 0 0)
(0.445679 0 0)
(0.446015 0 0)
(0.446368 0 0)
(0.44674 0 0)
(0.447131 0 0)
(0.447542 0 0)
(0.447975 0 0)
(0.448429 0 0)
(0.448906 0 0)
(0.449407 0 0)
(0.449933 0 0)
(0.450485 0 0)
(0.451064 0 0)
(0.45167 0 0)
(0.452306 0 0)
(0.452973 0 0)
(0.45367 0 0)
(0.454401 0 0)
(0.455165 0 0)
(0.455965 0 0)
(0.456802 0 0)
(0.457676 0 0)
(0.45859 0 0)
(0.459544 0 0)
(0.460541 0 0)
(0.461581 0 0)
(0.462666 0 0)
(0.463799 0 0)
(0.464979 0 0)
(0.46621 0 0)
(0.467492 0 0)
(0.468827 0 0)
(0.470218 0 0)
(0.471665 0 0)
(0.47317 0 0)
(0.474736 0 0)
(0.476363 0 0)
(0.478055 0 0)
(0.479812 0 0)
(0.481637 0 0)
(0.483532 0 0)
(0.485498 0 0)
(0.487538 0 0)
(0.489653 0 0)
(0.491846 0 0)
(0.494118 0 0)
(0.496471 0 0)
(0.498909 0 0)
(0.501431 0 0)
(0.504042 0 0)
(0.506743 0 0)
(0.509535 0 0)
(0.512421 0 0)
(0.515404 0 0)
(0.518485 0 0)
(0.521666 0 0)
(0.52495 0 0)
(0.528339 0 0)
(0.531834 0 0)
(0.535439 0 0)
(0.539154 0 0)
(0.542983 0 0)
(0.546927 0 0)
(0.550989 0 0)
(0.555169 0 0)
(0.559472 0 0)
(0.563898 0 0)
(0.56845 0 0)
(0.573129 0 0)
(0.577938 0 0)
(0.582879 0 0)
(0.587954 0 0)
(0.593164 0 0)
(0.598511 0 0)
(0.603998 0 0)
(0.609626 0 0)
(0.615397 0 0)
(0.621313 0 0)
(0.627375 0 0)
(0.633585 0 0)
(0.639946 0 0)
(0.646458 0 0)
(0.653123 0 0)
(0.659942 0 0)
(0.666918 0 0)
(0.674051 0 0)
(0.681344 0 0)
(0.688797 0 0)
(0.696411 0 0)
(0.704189 0 0)
(0.712131 0 0)
(0.720238 0 0)
(0.728512 0 0)
(0.736953 0 0)
(0.745563 0 0)
(0.754343 0 0)
(0.763293 0 0)
(0.772414 0 0)
(0.781708 0 0)
(0.791175 0 0)
(0.800815 0 0)
(0.81063 0 0)
(0.82062 0 0)
(0.830785 0 0)
(0.841126 0 0)
(0.851644 0 0)
(0.862338 0 0)
(0.87321 0 0)
(0.884259 0 0)
(0.895486 0 0)
(0.906891 0 0)
(0.918473 0 0)
(0.930234 0 0)
(0.942173 0 0)
(0.95429 0 0)
(0.966585 0 0)
(0.979058 0 0)
(0.991709 0 0)
(1.00454 0 0)
(1.01754 0 0)
(1.03072 0 0)
(1.04408 0 0)
(1.05762 0 0)
(1.07133 0 0)
(1.08522 0 0)
(1.09928 0 0)
(1.11351 0 0)
(1.12792 0 0)
(1.14251 0 0)
(1.15726 0 0)
(1.17219 0 0)
(1.18728 0 0)
(1.20255 0 0)
(1.21799 0 0)
(1.23359 0 0)
(1.24937 0 0)
(1.26531 0 0)
(1.28141 0 0)
(1.29768 0 0)
(1.31412 0 0)
(1.33072 0 0)
(1.34748 0 0)
(1.3644 0 0)
(1.38148 0 0)
(1.39871 0 0)
(1.41611 0 0)
(1.43366 0 0)
(1.45137 0 0)
(1.46923 0 0)
(1.48725 0 0)
(1.50542 0 0)
(1.52373 0 0)
(1.5422 0 0)
(1.56081 0 0)
(1.57957 0 0)
(1.59848 0 0)
(1.61753 0 0)
(1.63673 0 0)
(1.65606 0 0)
(1.67554 0 0)
(1.69515 0 0)
(1.7149 0 0)
(1.73479 0 0)
(1.75481 0 0)
(1.77497 0 0)
(1.79526 0 0)
(1.81568 0 0)
(1.83623 0 0)
(1.85691 0 0)
(1.87771 0 0)
(1.89864 0 0)
(1.9197 0 0)
(1.94088 0 0)
(1.96218 0 0)
(1.9836 0 0)
(2.00513 0 0)
(2.02679 0 0)
(2.04856 0 0)
(2.07045 0 0)
(2.09244 0 0)
(2.11456 0 0)
(2.13678 0 0)
(2.15911 0 0)
(2.18155 0 0)
(2.20409 0 0)
(2.22674 0 0)
(2.2495 0 0)
(2.27235 0 0)
(2.29531 0 0)
(2.31837 0 0)
(2.34153 0 0)
(2.36478 0 0)
(2.38813 0 0)
(2.41157 0 0)
(2.43511 0 0)
(2.45874 0 0)
(2.48246 0 0)
(2.50627 0 0)
(2.53017 0 0)
(2.55416 0 0)
(2.57823 0 0)
(2.60238 0 0)
(2.62662 0 0)
(2.65094 0 0)
(2.67534 0 0)
(2.69982 0 0)
(2.72438 0 0)
(2.74901 0 0)
(2.77372 0 0)
(2.79851 0 0)
(2.82336 0 0)
(2.84829 0 0)
(2.87329 0 0)
(2.89836 0 0)
(2.9235 0 0)
(2.9487 0 0)
(2.97397 0 0)
(2.9993 0 0)
(3.0247 0 0)
(3.05015 0 0)
(3.07567 0 0)
(3.10125 0 0)
(3.12688 0 0)
(3.15257 0 0)
(3.17832 0 0)
(3.20412 0 0)
(3.22998 0 0)
(3.25588 0 0)
(3.28184 0 0)
(3.30784 0 0)
(3.33389 0 0)
(3.35999 0 0)
(3.38613 0 0)
(3.41231 0 0)
(3.43854 0 0)
(3.46481 0 0)
(3.49111 0 0)
(3.51746 0 0)
(3.54384 0 0)
(3.57025 0 0)
(3.59669 0 0)
(3.62317 0 0)
(3.64968 0 0)
(3.67621 0 0)
(3.70277 0 0)
(3.72935 0 0)
(3.75596 0 0)
(3.78259 0 0)
(3.80923 0 0)
(3.83589 0 0)
(3.86257 0 0)
(3.88925 0 0)
(3.91595 0 0)
(3.94266 0 0)
(3.96937 0 0)
(3.99608 0 0)
(4.02279 0 0)
(4.0495 0 0)
(4.07621 0 0)
(4.10291 0 0)
(4.12959 0 0)
(4.15626 0 0)
(4.18292 0 0)
(4.20955 0 0)
(4.23615 0 0)
(4.26273 0 0)
(4.28927 0 0)
(4.31578 0 0)
(4.34225 0 0)
(4.36866 0 0)
(4.39503 0 0)
(4.42134 0 0)
(4.44759 0 0)
(4.47377 0 0)
(4.49987 0 0)
(4.52589 0 0)
(4.55183 0 0)
(4.57767 0 0)
(4.6034 0 0)
(4.62903 0 0)
(4.65453 0 0)
(4.67991 0 0)
(4.70514 0 0)
(4.73023 0 0)
(4.75515 0 0)
(4.7799 0 0)
(4.80447 0 0)
(4.82883 0 0)
(4.85299 0 0)
(4.87691 0 0)
(4.90059 0 0)
(4.92401 0 0)
(4.94715 0 0)
(4.96999 0 0)
(4.99251 0 0)
(5.01469 0 0)
(5.03651 0 0)
(5.05793 0 0)
(5.07894 0 0)
(5.0995 0 0)
(5.11959 0 0)
(5.13917 0 0)
(5.15821 0 0)
(5.17668 0 0)
(5.19453 0 0)
(5.21172 0 0)
(5.22822 0 0)
(5.24397 0 0)
(5.25893 0 0)
(5.27305 0 0)
(5.28627 0 0)
(5.29853 0 0)
(5.30977 0 0)
(5.31994 0 0)
(5.32895 0 0)
(5.33675 0 0)
(5.34325 0 0)
(5.34838 0 0)
(5.35205 0 0)
(5.35419 0 0)
(5.35469 0 0)
(5.35347 0 0)
(5.35043 0 0)
(5.34547 0 0)
(5.33849 0 0)
(5.32938 0 0)
(5.31803 0 0)
(5.30433 0 0)
(5.28817 0 0)
(5.26944 0 0)
(5.24803 0 0)
(5.22382 0 0)
(5.1967 0 0)
(5.16656 0 0)
(5.13331 0 0)
(5.09684 0 0)
(5.05705 0 0)
(5.01387 0 0)
(4.96722 0 0)
(4.91704 0 0)
(4.86328 0 0)
(4.8059 0 0)
(4.74488 0 0)
(4.68022 0 0)
(4.61195 0 0)
(4.5401 0 0)
(4.46473 0 0)
(4.38593 0 0)
(4.30381 0 0)
(4.21851 0 0)
(4.13018 0 0)
(4.03902 0 0)
(3.94522 0 0)
(3.84902 0 0)
(3.75067 0 0)
(3.65045 0 0)
(3.54864 0 0)
(3.44554 0 0)
(3.34146 0 0)
(3.23674 0 0)
(3.13169 0 0)
(3.02663 0 0)
(2.9219 0 0)
(2.8178 0 0)
(2.71465 0 0)
(2.61273 0 0)
(2.51234 0 0)
(2.41372 0 0)
(2.31711 0 0)
(2.22274 0 0)
(2.13079 0 0)
(2.04145 0 0)
(1.95485 0 0)
(1.87111 0 0)
(1.79034 0 0)
(1.7126 0 0)
(1.63796 0 0)
(1.56643 0 0)
(1.49803 0 0)
(1.43275 0 0)
(1.37056 0 0)
(1.31144 0 0)
(1.25531 0 0)
(1.20213 0 0)
(1.15181 0 0)
(1.10427 0 0)
(1.05943 0 0)
(1.01719 0 0)
(0.977442 0 0)
(0.940094 0 0)
(0.905042 0 0)
(0.872179 0 0)
(0.841403 0 0)
(0.812609 0 0)
(0.785696 0 0)
(0.760564 0 0)
(0.737115 0 0)
(0.715254 0 0)
(0.694889 0 0)
(0.675932 0 0)
(0.658298 0 0)
(0.641906 0 0)
(0.626677 0 0)
(0.612537 0 0)
(0.599416 0 0)
(0.587247 0 0)
(0.575966 0 0)
(0.565514 0 0)
(0.555835 0 0)
(0.546875 0 0)
(0.538583 0 0)
(0.530914 0 0)
(0.523823 0 0)
(0.517269 0 0)
(0.511214 0 0)
(0.50562 0 0)
(0.500455 0 0)
(0.495687 0 0)
(0.491287 0 0)
(0.487227 0 0)
(0.483482 0 0)
(0.480029 0 0)
(0.476845 0 0)
(0.47391 0 0)
(0.471205 0 0)
(0.468713 0 0)
(0.466417 0 0)
(0.464302 0 0)
(0.462355 0 0)
(0.460561 0 0)
(0.45891 0 0)
(0.457391 0 0)
(0.455992 0 0)
(0.454704 0 0)
(0.453519 0 0)
(0.452429 0 0)
(0.451427 0 0)
(0.450504 0 0)
(0.449655 0 0)
(0.448875 0 0)
(0.448157 0 0)
(0.447497 0 0)
(0.44689 0 0)
(0.446332 0 0)
(0.445819 0 0)
(0.445347 0 0)
(0.444913 0 0)
(0.444514 0 0)
(0.444148 0 0)
(0.443811 0 0)
(0.443501 0 0)
(0.443216 0 0)
(0.442954 0 0)
(0.442714 0 0)
(0.442493 0 0)
(0.44229 0 0)
(0.442103 0 0)
(0.441931 0 0)
(0.441773 0 0)
(0.441628 0 0)
(0.441495 0 0)
(0.441373 0 0)
(0.44126 0 0)
(0.441157 0 0)
(0.441062 0 0)
(0.440974 0 0)
(0.440894 0 0)
(0.44082 0 0)
(0.440752 0 0)
(0.44069 0 0)
(0.440633 0 0)
(0.44058 0 0)
(0.440532 0 0)
(0.440488 0 0)
(0.440447 0 0)
(0.440409 0 0)
(0.440375 0 0)
(0.440343 0 0)
(0.440314 0 0)
(0.440287 0 0)
(0.440263 0 0)
(0.44024 0 0)
(0.44022 0 0)
(0.440201 0 0)
(0.440183 0 0)
(0.440167 0 0)
(0.440152 0 0)
(0.440139 0 0)
(0.440126 0 0)
(0.440115 0 0)
(0.440105 0 0)
(0.440095 0 0)
(0.440086 0 0)
(0.440078 0 0)
(0.440071 0 0)
(0.440064 0 0)
(0.440057 0 0)
(0.440052 0 0)
(0.440046 0 0)
(0.440042 0 0)
(0.440037 0 0)
(0.440033 0 0)
(0.440029 0 0)
(0.440026 0 0)
(0.440023 0 0)
(0.44002 0 0)
(0.440017 0 0)
(0.440015 0 0)
(0.440013 0 0)
(0.440011 0 0)
(0.440009 0 0)
(0.440007 0 0)
(0.440005 0 0)
(0.440004 0 0)
(0.440003 0 0)
(0.440002 0 0)
(0.44 0 0)
(0.439999 0 0)
(0.439999 0 0)
(0.439998 0 0)
(0.439997 0 0)
(0.439996 0 0)
(0.439996 0 0)
(0.439995 0 0)
(0.439994 0 0)
(0.439994 0 0)
(0.439994 0 0)
(0.439993 0 0)
(0.439993 0 0)
(0.439992 0 0)
(0.439992 0 0)
(0.439992 0 0)
(0.439992 0 0)
(0.439991 0 0)
(0.439991 0 0)
(0.439991 0 0)
(0.439991 0 0)
(0.439991 0 0)
(0.43999 0 0)
(0.43999 0 0)
(0.43999 0 0)
(0.43999 0 0)
(0.43999 0 0)
(0.43999 0 0)
(0.43999 0 0)
(0.43999 0 0)
(0.43999 0 0)
(0.43999 0 0)
(0.439989 0 0)
(0.439989 0 0)
(0.439989 0 0)
(0.439989 0 0)
(0.439989 0 0)
(0.439989 0 0)
(0.439989 0 0)
(0.439989 0 0)
(0.439989 0 0)
(0.439989 0 0)
(0.439989 0 0)
(0.439989 0 0)
(0.439989 0 0)
(0.439989 0 0)
(0.439989 0 0)
(0.439989 0 0)
(0.439989 0 0)
(0.439989 0 0)
(0.439989 0 0)
(0.439989 0 0)
(0.439989 0 0)
(0.439989 0 0)
(0.439989 0 0)
(0.439989 0 0)
(0.439989 0 0)
(0.439989 0 0)
(0.439989 0 0)
(0.439989 0 0)
(0.439989 0 0)
(0.439989 0 0)
(0.439989 0 0)
(0.439989 0 0)
(0.439989 0 0)
(0.439989 0 0)
(0.439989 0 0)
(0.439989 0 0)
(0.439989 0 0)
(0.439989 0 0)
(0.439989 0 0)
(0.439989 0 0)
(0.439989 0 0)
(0.439989 0 0)
(0.439989 0 0)
(0.439989 0 0)
(0.439989 0 0)
(0.439989 0 0)
(0.439989 0 0)
(0.439989 0 0)
(0.439989 0 0)
(0.439989 0 0)
(0.439989 0 0)
(0.439989 0 0)
(0.439989 0 0)
(0.439989 0 0)
(0.439989 0 0)
(0.439989 0 0)
(0.439989 0 0)
(0.439989 0 0)
(0.439989 0 0)
(0.439989 0 0)
(0.439989 0 0)
(0.439989 0 0)
(0.439989 0 0)
(0.439989 0 0)
(0.439989 0 0)
(0.439989 0 0)
(0.439989 0 0)
(0.439989 0 0)
(0.439989 0 0)
(0.439989 0 0)
(0.439989 0 0)
(0.439989 0 0)
(0.439989 0 0)
(0.439989 0 0)
(0.439989 0 0)
(0.439989 0 0)
(0.439989 0 0)
(0.439989 0 0)
(0.439989 0 0)
(0.439989 0 0)
(0.439989 0 0)
(0.439989 0 0)
(0.439989 0 0)
(0.439989 0 0)
(0.439989 0 0)
(0.439989 0 0)
(0.439989 0 0)
(0.439989 0 0)
(0.439989 0 0)
(0.439989 0 0)
(0.439989 0 0)
(0.439989 0 0)
(0.439989 0 0)
(0.439989 0 0)
(0.439989 0 0)
(0.439989 0 0)
(0.439989 0 0)
(0.439989 0 0)
(0.439989 0 0)
(0.439989 0 0)
(0.439989 0 0)
(0.439989 0 0)
(0.439989 0 0)
(0.439989 0 0)
(0.439989 0 0)
(0.439989 0 0)
(0.439989 0 0)
(0.439989 0 0)
(0.439989 0 0)
(0.439989 0 0)
(0.439989 0 0)
(0.439989 0 0)
(0.439989 0 0)
(0.439989 0 0)
(0.439989 0 0)
(0.439989 0 0)
(0.439989 0 0)
(0.439989 0 0)
(0.439989 0 0)
(0.439989 0 0)
(0.439989 0 0)
(0.439989 0 0)
(0.439989 0 0)
(0.439989 0 0)
(0.439989 0 0)
(0.439989 0 0)
(0.439989 0 0)
(0.439989 0 0)
(0.439989 0 0)
(0.439989 0 0)
(0.439989 0 0)
(0.439989 0 0)
(0.439989 0 0)
(0.439989 0 0)
(0.439989 0 0)
(0.439989 0 0)
(0.439989 0 0)
(0.439989 0 0)
(0.439989 0 0)
(0.439989 0 0)
(0.439989 0 0)
(0.439989 0 0)
(0.439989 0 0)
(0.439989 0 0)
(0.439989 0 0)
(0.439989 0 0)
(0.439989 0 0)
(0.439989 0 0)
(0.439989 0 0)
(0.439989 0 0)
(0.439989 0 0)
(0.439989 0 0)
(0.439989 0 0)
(0.439989 0 0)
(0.439989 0 0)
)
;

boundaryField
{
    topWall
    {
        type            empty;
    }
    bottomWall
    {
        type            empty;
    }
    leftAndRight_half1
    {
        type            cyclic;
    }
    leftAndRight_half0
    {
        type            cyclic;
    }
    frontAndBack
    {
        type            empty;
    }
}


// ************************************************************************* //
