/*--------------------------------*- C++ -*----------------------------------*\
  =========                 |
  \\      /  F ield         | OpenFOAM: The Open Source CFD Toolbox
   \\    /   O peration     | Website:  https://openfoam.org
    \\  /    A nd           | Version:  9
     \\/     M anipulation  |
\*---------------------------------------------------------------------------*/
FoamFile
{
    format      ascii;
    class       volVectorField;
    location    "3";
    object      U;
}
// * * * * * * * * * * * * * * * * * * * * * * * * * * * * * * * * * * * * * //

dimensions      [0 1 -1 0 0 0 0];

internalField   nonuniform List<vector> 
1000
(
(0.131763 0 0)
(0.131696 0 0)
(0.131764 0 0)
(0.131694 0 0)
(0.131765 0 0)
(0.131691 0 0)
(0.131766 0 0)
(0.131689 0 0)
(0.131766 0 0)
(0.131687 0 0)
(0.131767 0 0)
(0.131684 0 0)
(0.131767 0 0)
(0.131682 0 0)
(0.131768 0 0)
(0.131679 0 0)
(0.131768 0 0)
(0.131677 0 0)
(0.131768 0 0)
(0.131675 0 0)
(0.131768 0 0)
(0.131672 0 0)
(0.131768 0 0)
(0.13167 0 0)
(0.131768 0 0)
(0.131668 0 0)
(0.131768 0 0)
(0.131666 0 0)
(0.131768 0 0)
(0.131664 0 0)
(0.131768 0 0)
(0.131662 0 0)
(0.131768 0 0)
(0.13166 0 0)
(0.131768 0 0)
(0.131659 0 0)
(0.131768 0 0)
(0.131658 0 0)
(0.131767 0 0)
(0.131657 0 0)
(0.131767 0 0)
(0.131656 0 0)
(0.131767 0 0)
(0.131656 0 0)
(0.131767 0 0)
(0.131656 0 0)
(0.131768 0 0)
(0.131657 0 0)
(0.131768 0 0)
(0.131658 0 0)
(0.131769 0 0)
(0.131659 0 0)
(0.13177 0 0)
(0.131662 0 0)
(0.131771 0 0)
(0.131664 0 0)
(0.131773 0 0)
(0.131668 0 0)
(0.131775 0 0)
(0.131672 0 0)
(0.131778 0 0)
(0.131677 0 0)
(0.131782 0 0)
(0.131683 0 0)
(0.131786 0 0)
(0.13169 0 0)
(0.131791 0 0)
(0.131698 0 0)
(0.131796 0 0)
(0.131707 0 0)
(0.131803 0 0)
(0.131717 0 0)
(0.131811 0 0)
(0.131729 0 0)
(0.13182 0 0)
(0.131741 0 0)
(0.13183 0 0)
(0.131756 0 0)
(0.131841 0 0)
(0.131771 0 0)
(0.131855 0 0)
(0.131788 0 0)
(0.13187 0 0)
(0.131806 0 0)
(0.131888 0 0)
(0.131823 0 0)
(0.131912 0 0)
(0.131835 0 0)
(0.131947 0 0)
(0.131837 0 0)
(0.132003 0 0)
(0.131822 0 0)
(0.132082 0 0)
(0.131802 0 0)
(0.132171 0 0)
(0.131814 0 0)
(0.132236 0 0)
(0.131908 0 0)
(0.132267 0 0)
(0.132078 0 0)
(0.132323 0 0)
(0.13225 0 0)
(0.132428 0 0)
(0.132395 0 0)
(0.132545 0 0)
(0.132513 0 0)
(0.132646 0 0)
(0.132606 0 0)
(0.132721 0 0)
(0.132675 0 0)
(0.132775 0 0)
(0.132726 0 0)
(0.132814 0 0)
(0.132765 0 0)
(0.132845 0 0)
(0.132799 0 0)
(0.132873 0 0)
(0.132832 0 0)
(0.1329 0 0)
(0.132864 0 0)
(0.132929 0 0)
(0.132898 0 0)
(0.132958 0 0)
(0.132932 0 0)
(0.13299 0 0)
(0.132968 0 0)
(0.133022 0 0)
(0.133005 0 0)
(0.133056 0 0)
(0.133044 0 0)
(0.133092 0 0)
(0.133083 0 0)
(0.133128 0 0)
(0.133123 0 0)
(0.133166 0 0)
(0.133164 0 0)
(0.133205 0 0)
(0.133206 0 0)
(0.133245 0 0)
(0.133249 0 0)
(0.133285 0 0)
(0.133292 0 0)
(0.133327 0 0)
(0.133336 0 0)
(0.133369 0 0)
(0.13338 0 0)
(0.133411 0 0)
(0.133424 0 0)
(0.133454 0 0)
(0.133468 0 0)
(0.133497 0 0)
(0.133512 0 0)
(0.13354 0 0)
(0.133556 0 0)
(0.133582 0 0)
(0.1336 0 0)
(0.133625 0 0)
(0.133643 0 0)
(0.133667 0 0)
(0.133686 0 0)
(0.133708 0 0)
(0.133728 0 0)
(0.133749 0 0)
(0.133769 0 0)
(0.133789 0 0)
(0.133808 0 0)
(0.133827 0 0)
(0.133847 0 0)
(0.133865 0 0)
(0.133884 0 0)
(0.133901 0 0)
(0.13392 0 0)
(0.133935 0 0)
(0.133953 0 0)
(0.133968 0 0)
(0.133986 0 0)
(0.133999 0 0)
(0.134016 0 0)
(0.134028 0 0)
(0.134044 0 0)
(0.134054 0 0)
(0.134069 0 0)
(0.134079 0 0)
(0.134093 0 0)
(0.1341 0 0)
(0.134114 0 0)
(0.134119 0 0)
(0.134133 0 0)
(0.134134 0 0)
(0.13415 0 0)
(0.134147 0 0)
(0.134163 0 0)
(0.134158 0 0)
(0.134173 0 0)
(0.134167 0 0)
(0.134178 0 0)
(0.134175 0 0)
(0.134183 0 0)
(0.134183 0 0)
(0.134192 0 0)
(0.134195 0 0)
(0.134206 0 0)
(0.134205 0 0)
(0.1342 0 0)
(0.134165 0 0)
(0.134112 0 0)
(0.134027 0 0)
(0.133936 0 0)
(0.133838 0 0)
(0.13376 0 0)
(0.133691 0 0)
(0.133647 0 0)
(0.133611 0 0)
(0.133592 0 0)
(0.133575 0 0)
(0.133568 0 0)
(0.133558 0 0)
(0.133554 0 0)
(0.133546 0 0)
(0.133543 0 0)
(0.133535 0 0)
(0.13353 0 0)
(0.133522 0 0)
(0.133516 0 0)
(0.133506 0 0)
(0.133499 0 0)
(0.133488 0 0)
(0.13348 0 0)
(0.133468 0 0)
(0.133459 0 0)
(0.133446 0 0)
(0.133435 0 0)
(0.133422 0 0)
(0.13341 0 0)
(0.133395 0 0)
(0.133382 0 0)
(0.133367 0 0)
(0.133353 0 0)
(0.133337 0 0)
(0.133322 0 0)
(0.133305 0 0)
(0.13329 0 0)
(0.133272 0 0)
(0.133255 0 0)
(0.133237 0 0)
(0.13322 0 0)
(0.133201 0 0)
(0.133183 0 0)
(0.133164 0 0)
(0.133145 0 0)
(0.133126 0 0)
(0.133107 0 0)
(0.133087 0 0)
(0.133067 0 0)
(0.133047 0 0)
(0.133027 0 0)
(0.133006 0 0)
(0.132986 0 0)
(0.132965 0 0)
(0.132944 0 0)
(0.132923 0 0)
(0.132902 0 0)
(0.132881 0 0)
(0.13286 0 0)
(0.132839 0 0)
(0.132818 0 0)
(0.132797 0 0)
(0.132776 0 0)
(0.132755 0 0)
(0.132734 0 0)
(0.132713 0 0)
(0.132692 0 0)
(0.132672 0 0)
(0.132651 0 0)
(0.13263 0 0)
(0.13261 0 0)
(0.13259 0 0)
(0.13257 0 0)
(0.13255 0 0)
(0.13253 0 0)
(0.132511 0 0)
(0.132491 0 0)
(0.132472 0 0)
(0.132453 0 0)
(0.132434 0 0)
(0.132416 0 0)
(0.132398 0 0)
(0.13238 0 0)
(0.132362 0 0)
(0.132344 0 0)
(0.132327 0 0)
(0.13231 0 0)
(0.132293 0 0)
(0.132277 0 0)
(0.132261 0 0)
(0.132245 0 0)
(0.132229 0 0)
(0.132214 0 0)
(0.132199 0 0)
(0.132184 0 0)
(0.13217 0 0)
(0.132155 0 0)
(0.132142 0 0)
(0.132128 0 0)
(0.132115 0 0)
(0.132102 0 0)
(0.132089 0 0)
(0.132077 0 0)
(0.132065 0 0)
(0.132053 0 0)
(0.132042 0 0)
(0.132031 0 0)
(0.13202 0 0)
(0.132009 0 0)
(0.131999 0 0)
(0.131989 0 0)
(0.131979 0 0)
(0.13197 0 0)
(0.131961 0 0)
(0.131952 0 0)
(0.131943 0 0)
(0.131935 0 0)
(0.131927 0 0)
(0.131919 0 0)
(0.131911 0 0)
(0.131904 0 0)
(0.131897 0 0)
(0.13189 0 0)
(0.131884 0 0)
(0.131877 0 0)
(0.131871 0 0)
(0.131865 0 0)
(0.131859 0 0)
(0.131854 0 0)
(0.131849 0 0)
(0.131843 0 0)
(0.131839 0 0)
(0.131834 0 0)
(0.131829 0 0)
(0.131825 0 0)
(0.131821 0 0)
(0.131817 0 0)
(0.131813 0 0)
(0.131809 0 0)
(0.131806 0 0)
(0.131802 0 0)
(0.131799 0 0)
(0.131796 0 0)
(0.131793 0 0)
(0.13179 0 0)
(0.131787 0 0)
(0.131785 0 0)
(0.131782 0 0)
(0.13178 0 0)
(0.131777 0 0)
(0.131775 0 0)
(0.131773 0 0)
(0.131771 0 0)
(0.131769 0 0)
(0.131768 0 0)
(0.131766 0 0)
(0.131764 0 0)
(0.131763 0 0)
(0.131761 0 0)
(0.13176 0 0)
(0.131759 0 0)
(0.131758 0 0)
(0.131756 0 0)
(0.131755 0 0)
(0.131754 0 0)
(0.131753 0 0)
(0.131752 0 0)
(0.131751 0 0)
(0.131751 0 0)
(0.13175 0 0)
(0.131749 0 0)
(0.131748 0 0)
(0.131748 0 0)
(0.131747 0 0)
(0.131747 0 0)
(0.131746 0 0)
(0.131745 0 0)
(0.131745 0 0)
(0.131744 0 0)
(0.131744 0 0)
(0.131744 0 0)
(0.131743 0 0)
(0.131743 0 0)
(0.131743 0 0)
(0.131742 0 0)
(0.131742 0 0)
(0.131742 0 0)
(0.131741 0 0)
(0.131741 0 0)
(0.131741 0 0)
(0.131741 0 0)
(0.131741 0 0)
(0.13174 0 0)
(0.13174 0 0)
(0.13174 0 0)
(0.13174 0 0)
(0.13174 0 0)
(0.13174 0 0)
(0.131739 0 0)
(0.131739 0 0)
(0.131739 0 0)
(0.131739 0 0)
(0.131739 0 0)
(0.131739 0 0)
(0.131739 0 0)
(0.131739 0 0)
(0.131739 0 0)
(0.131739 0 0)
(0.131739 0 0)
(0.131739 0 0)
(0.131739 0 0)
(0.131739 0 0)
(0.131738 0 0)
(0.131738 0 0)
(0.131738 0 0)
(0.131738 0 0)
(0.131738 0 0)
(0.131738 0 0)
(0.131738 0 0)
(0.131738 0 0)
(0.131738 0 0)
(0.131738 0 0)
(0.131738 0 0)
(0.131738 0 0)
(0.131738 0 0)
(0.131738 0 0)
(0.131738 0 0)
(0.131738 0 0)
(0.131738 0 0)
(0.131738 0 0)
(0.131738 0 0)
(0.131738 0 0)
(0.131738 0 0)
(0.131738 0 0)
(0.131738 0 0)
(0.131738 0 0)
(0.131738 0 0)
(0.131738 0 0)
(0.131738 0 0)
(0.131738 0 0)
(0.131738 0 0)
(0.131738 0 0)
(0.131738 0 0)
(0.131738 0 0)
(0.131738 0 0)
(0.131738 0 0)
(0.131738 0 0)
(0.131738 0 0)
(0.131738 0 0)
(0.131738 0 0)
(0.131738 0 0)
(0.131738 0 0)
(0.131738 0 0)
(0.131738 0 0)
(0.131738 0 0)
(0.131738 0 0)
(0.131738 0 0)
(0.131738 0 0)
(0.131738 0 0)
(0.131738 0 0)
(0.131738 0 0)
(0.131738 0 0)
(0.131738 0 0)
(0.131738 0 0)
(0.131738 0 0)
(0.131738 0 0)
(0.131738 0 0)
(0.131738 0 0)
(0.131738 0 0)
(0.131738 0 0)
(0.131738 0 0)
(0.131738 0 0)
(0.131738 0 0)
(0.131738 0 0)
(0.131738 0 0)
(0.131738 0 0)
(0.131738 0 0)
(0.131738 0 0)
(0.131738 0 0)
(0.131738 0 0)
(0.131738 0 0)
(0.131738 0 0)
(0.131738 0 0)
(0.131738 0 0)
(0.131738 0 0)
(0.131738 0 0)
(0.131738 0 0)
(0.131738 0 0)
(0.131738 0 0)
(0.131738 0 0)
(0.131738 0 0)
(0.131738 0 0)
(0.131738 0 0)
(0.131738 0 0)
(0.131738 0 0)
(0.131738 0 0)
(0.131738 0 0)
(0.131738 0 0)
(0.131738 0 0)
(0.131738 0 0)
(0.131738 0 0)
(0.131738 0 0)
(0.131738 0 0)
(0.131738 0 0)
(0.131738 0 0)
(0.131738 0 0)
(0.131738 0 0)
(0.131738 0 0)
(0.131738 0 0)
(0.131738 0 0)
(0.131738 0 0)
(0.131738 0 0)
(0.131738 0 0)
(0.131738 0 0)
(0.131738 0 0)
(0.131738 0 0)
(0.131738 0 0)
(0.131738 0 0)
(0.131738 0 0)
(0.131738 0 0)
(0.131738 0 0)
(0.131738 0 0)
(0.131738 0 0)
(0.131738 0 0)
(0.131738 0 0)
(0.131738 0 0)
(0.131738 0 0)
(0.131738 0 0)
(0.131738 0 0)
(0.131738 0 0)
(0.131738 0 0)
(0.131738 0 0)
(0.131738 0 0)
(0.131738 0 0)
(0.131738 0 0)
(0.131738 0 0)
(0.131738 0 0)
(0.131738 0 0)
(0.131738 0 0)
(0.131738 0 0)
(0.131738 0 0)
(0.131738 0 0)
(0.131738 0 0)
(0.131738 0 0)
(0.131738 0 0)
(0.131738 0 0)
(0.131738 0 0)
(0.131738 0 0)
(0.131738 0 0)
(0.131738 0 0)
(0.131738 0 0)
(0.131738 0 0)
(0.131738 0 0)
(0.131738 0 0)
(0.131738 0 0)
(0.131738 0 0)
(0.131738 0 0)
(0.131738 0 0)
(0.131738 0 0)
(0.131738 0 0)
(0.131738 0 0)
(0.131738 0 0)
(0.131738 0 0)
(0.131738 0 0)
(0.131738 0 0)
(0.131738 0 0)
(0.131738 0 0)
(0.131738 0 0)
(0.131738 0 0)
(0.131738 0 0)
(0.131738 0 0)
(0.131738 0 0)
(0.131738 0 0)
(0.131738 0 0)
(0.131738 0 0)
(0.131738 0 0)
(0.131738 0 0)
(0.131738 0 0)
(0.131738 0 0)
(0.131738 0 0)
(0.131738 0 0)
(0.131738 0 0)
(0.131738 0 0)
(0.131738 0 0)
(0.131738 0 0)
(0.131738 0 0)
(0.131738 0 0)
(0.131738 0 0)
(0.131738 0 0)
(0.131738 0 0)
(0.131738 0 0)
(0.131738 0 0)
(0.131738 0 0)
(0.131738 0 0)
(0.131738 0 0)
(0.131738 0 0)
(0.131738 0 0)
(0.131738 0 0)
(0.131738 0 0)
(0.131738 0 0)
(0.131738 0 0)
(0.131738 0 0)
(0.131738 0 0)
(0.131738 0 0)
(0.131738 0 0)
(0.131738 0 0)
(0.131738 0 0)
(0.131738 0 0)
(0.131738 0 0)
(0.131738 0 0)
(0.131738 0 0)
(0.131738 0 0)
(0.131738 0 0)
(0.131738 0 0)
(0.131738 0 0)
(0.131738 0 0)
(0.131738 0 0)
(0.131738 0 0)
(0.131738 0 0)
(0.131738 0 0)
(0.131738 0 0)
(0.131738 0 0)
(0.131738 0 0)
(0.131738 0 0)
(0.131738 0 0)
(0.131738 0 0)
(0.131738 0 0)
(0.131738 0 0)
(0.131738 0 0)
(0.131738 0 0)
(0.131738 0 0)
(0.131738 0 0)
(0.131738 0 0)
(0.131738 0 0)
(0.131738 0 0)
(0.131738 0 0)
(0.131738 0 0)
(0.131738 0 0)
(0.131738 0 0)
(0.131738 0 0)
(0.131738 0 0)
(0.131738 0 0)
(0.131738 0 0)
(0.131738 0 0)
(0.131738 0 0)
(0.131738 0 0)
(0.131738 0 0)
(0.131738 0 0)
(0.131738 0 0)
(0.131738 0 0)
(0.131738 0 0)
(0.131738 0 0)
(0.131738 0 0)
(0.131738 0 0)
(0.131738 0 0)
(0.131738 0 0)
(0.131738 0 0)
(0.131738 0 0)
(0.131738 0 0)
(0.131738 0 0)
(0.131738 0 0)
(0.131738 0 0)
(0.131738 0 0)
(0.131738 0 0)
(0.131738 0 0)
(0.131738 0 0)
(0.131738 0 0)
(0.131738 0 0)
(0.131738 0 0)
(0.131738 0 0)
(0.131738 0 0)
(0.131738 0 0)
(0.131738 0 0)
(0.131738 0 0)
(0.131738 0 0)
(0.131738 0 0)
(0.131738 0 0)
(0.131738 0 0)
(0.131738 0 0)
(0.131738 0 0)
(0.131738 0 0)
(0.131738 0 0)
(0.131738 0 0)
(0.131738 0 0)
(0.131738 0 0)
(0.131738 0 0)
(0.131738 0 0)
(0.131738 0 0)
(0.131738 0 0)
(0.131738 0 0)
(0.131738 0 0)
(0.131738 0 0)
(0.131738 0 0)
(0.131738 0 0)
(0.131738 0 0)
(0.131738 0 0)
(0.131738 0 0)
(0.131738 0 0)
(0.131738 0 0)
(0.131738 0 0)
(0.131738 0 0)
(0.131738 0 0)
(0.131738 0 0)
(0.131738 0 0)
(0.131738 0 0)
(0.131738 0 0)
(0.131738 0 0)
(0.131738 0 0)
(0.131738 0 0)
(0.131738 0 0)
(0.131738 0 0)
(0.131738 0 0)
(0.131738 0 0)
(0.131738 0 0)
(0.131738 0 0)
(0.131738 0 0)
(0.131738 0 0)
(0.131738 0 0)
(0.131738 0 0)
(0.131738 0 0)
(0.131738 0 0)
(0.131738 0 0)
(0.131738 0 0)
(0.131738 0 0)
(0.131738 0 0)
(0.131738 0 0)
(0.131738 0 0)
(0.131738 0 0)
(0.131738 0 0)
(0.131738 0 0)
(0.131738 0 0)
(0.131738 0 0)
(0.131738 0 0)
(0.131738 0 0)
(0.131738 0 0)
(0.131738 0 0)
(0.131738 0 0)
(0.131738 0 0)
(0.131738 0 0)
(0.131738 0 0)
(0.131738 0 0)
(0.131738 0 0)
(0.131738 0 0)
(0.131738 0 0)
(0.131738 0 0)
(0.131738 0 0)
(0.131738 0 0)
(0.131738 0 0)
(0.131738 0 0)
(0.131738 0 0)
(0.131738 0 0)
(0.131738 0 0)
(0.131738 0 0)
(0.131738 0 0)
(0.131738 0 0)
(0.131738 0 0)
(0.131738 0 0)
(0.131738 0 0)
(0.131738 0 0)
(0.131738 0 0)
(0.131738 0 0)
(0.131738 0 0)
(0.131738 0 0)
(0.131738 0 0)
(0.131738 0 0)
(0.131738 0 0)
(0.131738 0 0)
(0.131738 0 0)
(0.131738 0 0)
(0.131738 0 0)
(0.131738 0 0)
(0.131738 0 0)
(0.131738 0 0)
(0.131738 0 0)
(0.131738 0 0)
(0.131738 0 0)
(0.131738 0 0)
(0.131738 0 0)
(0.131738 0 0)
(0.131738 0 0)
(0.131738 0 0)
(0.131738 0 0)
(0.131738 0 0)
(0.131738 0 0)
(0.131738 0 0)
(0.131738 0 0)
(0.131738 0 0)
(0.131738 0 0)
(0.131738 0 0)
(0.131738 0 0)
(0.131738 0 0)
(0.131738 0 0)
(0.131738 0 0)
(0.131738 0 0)
(0.131738 0 0)
(0.131738 0 0)
(0.131738 0 0)
(0.131738 0 0)
(0.131738 0 0)
(0.131738 0 0)
(0.131738 0 0)
(0.131738 0 0)
(0.131738 0 0)
(0.131738 0 0)
(0.131738 0 0)
(0.131738 0 0)
(0.131738 0 0)
(0.131738 0 0)
(0.131738 0 0)
(0.131738 0 0)
(0.131738 0 0)
(0.131738 0 0)
(0.131738 0 0)
(0.131738 0 0)
(0.131738 0 0)
(0.131738 0 0)
(0.131738 0 0)
(0.131738 0 0)
(0.131738 0 0)
(0.131738 0 0)
(0.131738 0 0)
(0.131738 0 0)
(0.131738 0 0)
(0.131738 0 0)
(0.131738 0 0)
(0.131738 0 0)
(0.131738 0 0)
(0.131738 0 0)
(0.131738 0 0)
(0.131738 0 0)
(0.131738 0 0)
(0.131738 0 0)
(0.131738 0 0)
(0.131738 0 0)
(0.131738 0 0)
(0.131738 0 0)
(0.131738 0 0)
(0.131738 0 0)
(0.131738 0 0)
(0.131738 0 0)
(0.131738 0 0)
(0.131738 0 0)
(0.131738 0 0)
(0.131738 0 0)
(0.131738 0 0)
(0.131738 0 0)
(0.131738 0 0)
(0.131738 0 0)
(0.131738 0 0)
(0.131738 0 0)
(0.131738 0 0)
(0.131738 0 0)
(0.131738 0 0)
(0.131738 0 0)
(0.131738 0 0)
(0.131738 0 0)
(0.131738 0 0)
(0.131738 0 0)
(0.131738 0 0)
(0.131738 0 0)
(0.131738 0 0)
(0.131738 0 0)
(0.131738 0 0)
(0.131738 0 0)
(0.131738 0 0)
(0.131738 0 0)
(0.131738 0 0)
(0.131738 0 0)
(0.131738 0 0)
(0.131738 0 0)
(0.131738 0 0)
(0.131738 0 0)
(0.131738 0 0)
(0.131738 0 0)
(0.131738 0 0)
(0.131738 0 0)
(0.131738 0 0)
(0.131738 0 0)
(0.131738 0 0)
(0.131738 0 0)
(0.131738 0 0)
(0.131738 0 0)
(0.131738 0 0)
(0.131738 0 0)
(0.131738 0 0)
(0.131738 0 0)
(0.131738 0 0)
(0.131738 0 0)
(0.131738 0 0)
(0.131738 0 0)
(0.131738 0 0)
(0.131738 0 0)
(0.131738 0 0)
(0.131738 0 0)
(0.131738 0 0)
(0.131738 0 0)
(0.131738 0 0)
(0.131738 0 0)
(0.131738 0 0)
(0.131738 0 0)
(0.131738 0 0)
(0.131738 0 0)
(0.131738 0 0)
(0.131738 0 0)
(0.131737 0 0)
(0.131739 0 0)
(0.131737 0 0)
(0.131739 0 0)
(0.131737 0 0)
(0.131739 0 0)
(0.131737 0 0)
(0.131739 0 0)
(0.131737 0 0)
(0.131739 0 0)
(0.131737 0 0)
(0.131739 0 0)
(0.131737 0 0)
(0.131739 0 0)
(0.131737 0 0)
(0.131739 0 0)
(0.131736 0 0)
(0.13174 0 0)
(0.131736 0 0)
(0.13174 0 0)
(0.131736 0 0)
(0.13174 0 0)
(0.131736 0 0)
(0.13174 0 0)
(0.131736 0 0)
(0.13174 0 0)
(0.131735 0 0)
(0.131741 0 0)
(0.131735 0 0)
(0.131741 0 0)
(0.131735 0 0)
(0.131741 0 0)
(0.131734 0 0)
(0.131742 0 0)
(0.131734 0 0)
(0.131742 0 0)
(0.131733 0 0)
(0.131742 0 0)
(0.131733 0 0)
(0.131743 0 0)
(0.131732 0 0)
(0.131743 0 0)
(0.131732 0 0)
(0.131744 0 0)
(0.131731 0 0)
(0.131744 0 0)
(0.13173 0 0)
(0.131745 0 0)
(0.13173 0 0)
(0.131746 0 0)
(0.131729 0 0)
(0.131746 0 0)
(0.131728 0 0)
(0.131747 0 0)
(0.131727 0 0)
(0.131748 0 0)
(0.131726 0 0)
(0.131748 0 0)
(0.131725 0 0)
(0.131749 0 0)
(0.131724 0 0)
(0.13175 0 0)
(0.131723 0 0)
(0.131751 0 0)
(0.131721 0 0)
(0.131752 0 0)
(0.13172 0 0)
(0.131752 0 0)
(0.131719 0 0)
(0.131753 0 0)
(0.131717 0 0)
(0.131754 0 0)
(0.131716 0 0)
(0.131755 0 0)
(0.131714 0 0)
(0.131756 0 0)
(0.131712 0 0)
(0.131757 0 0)
(0.131711 0 0)
(0.131758 0 0)
(0.131709 0 0)
(0.131759 0 0)
(0.131707 0 0)
(0.13176 0 0)
(0.131705 0 0)
(0.131761 0 0)
(0.131703 0 0)
(0.131762 0 0)
(0.131701 0 0)
(0.131763 0 0)
(0.131698 0 0)
)
;

boundaryField
{
    topWall
    {
        type            empty;
    }
    bottomWall
    {
        type            empty;
    }
    leftAndRight_half1
    {
        type            cyclic;
    }
    leftAndRight_half0
    {
        type            cyclic;
    }
    frontAndBack
    {
        type            empty;
    }
}


// ************************************************************************* //
