/*--------------------------------*- C++ -*----------------------------------*\
  =========                 |
  \\      /  F ield         | OpenFOAM: The Open Source CFD Toolbox
   \\    /   O peration     | Website:  https://openfoam.org
    \\  /    A nd           | Version:  9
     \\/     M anipulation  |
\*---------------------------------------------------------------------------*/
FoamFile
{
    format      ascii;
    class       volVectorField;
    location    "2.05";
    object      U;
}
// * * * * * * * * * * * * * * * * * * * * * * * * * * * * * * * * * * * * * //

dimensions      [0 1 -1 0 0 0 0];

internalField   nonuniform List<vector> 
1000
(
(0.131755 0 0)
(0.13171 0 0)
(0.131757 0 0)
(0.131707 0 0)
(0.131758 0 0)
(0.131705 0 0)
(0.131759 0 0)
(0.131702 0 0)
(0.13176 0 0)
(0.131698 0 0)
(0.131761 0 0)
(0.131695 0 0)
(0.131762 0 0)
(0.131691 0 0)
(0.131763 0 0)
(0.131688 0 0)
(0.131764 0 0)
(0.131684 0 0)
(0.131765 0 0)
(0.13168 0 0)
(0.131765 0 0)
(0.131675 0 0)
(0.131766 0 0)
(0.131671 0 0)
(0.131766 0 0)
(0.131667 0 0)
(0.131766 0 0)
(0.131662 0 0)
(0.131766 0 0)
(0.131657 0 0)
(0.131766 0 0)
(0.131652 0 0)
(0.131765 0 0)
(0.131648 0 0)
(0.131764 0 0)
(0.131643 0 0)
(0.131763 0 0)
(0.131638 0 0)
(0.131762 0 0)
(0.131633 0 0)
(0.131761 0 0)
(0.131628 0 0)
(0.131759 0 0)
(0.131624 0 0)
(0.131757 0 0)
(0.13162 0 0)
(0.131755 0 0)
(0.131616 0 0)
(0.131753 0 0)
(0.131612 0 0)
(0.131751 0 0)
(0.131608 0 0)
(0.131749 0 0)
(0.131606 0 0)
(0.131747 0 0)
(0.131603 0 0)
(0.131745 0 0)
(0.131602 0 0)
(0.131743 0 0)
(0.131601 0 0)
(0.131742 0 0)
(0.131601 0 0)
(0.13174 0 0)
(0.131601 0 0)
(0.13174 0 0)
(0.131603 0 0)
(0.13174 0 0)
(0.131606 0 0)
(0.131741 0 0)
(0.131611 0 0)
(0.131742 0 0)
(0.131616 0 0)
(0.131745 0 0)
(0.131624 0 0)
(0.131749 0 0)
(0.131633 0 0)
(0.131754 0 0)
(0.131643 0 0)
(0.131761 0 0)
(0.131656 0 0)
(0.13177 0 0)
(0.13167 0 0)
(0.131781 0 0)
(0.131686 0 0)
(0.131796 0 0)
(0.131702 0 0)
(0.131817 0 0)
(0.131714 0 0)
(0.131851 0 0)
(0.131716 0 0)
(0.131904 0 0)
(0.131702 0 0)
(0.131983 0 0)
(0.131684 0 0)
(0.132072 0 0)
(0.131699 0 0)
(0.132138 0 0)
(0.131797 0 0)
(0.132171 0 0)
(0.131971 0 0)
(0.13223 0 0)
(0.132149 0 0)
(0.132338 0 0)
(0.1323 0 0)
(0.13246 0 0)
(0.132426 0 0)
(0.132567 0 0)
(0.132527 0 0)
(0.132649 0 0)
(0.132605 0 0)
(0.13271 0 0)
(0.132666 0 0)
(0.132759 0 0)
(0.132717 0 0)
(0.1328 0 0)
(0.132763 0 0)
(0.132839 0 0)
(0.132809 0 0)
(0.132879 0 0)
(0.132855 0 0)
(0.13292 0 0)
(0.132903 0 0)
(0.132964 0 0)
(0.132953 0 0)
(0.133009 0 0)
(0.133005 0 0)
(0.133057 0 0)
(0.133058 0 0)
(0.133107 0 0)
(0.133113 0 0)
(0.133159 0 0)
(0.133169 0 0)
(0.133213 0 0)
(0.133227 0 0)
(0.133268 0 0)
(0.133285 0 0)
(0.133324 0 0)
(0.133345 0 0)
(0.133381 0 0)
(0.133405 0 0)
(0.133439 0 0)
(0.133465 0 0)
(0.133498 0 0)
(0.133526 0 0)
(0.133557 0 0)
(0.133587 0 0)
(0.133616 0 0)
(0.133647 0 0)
(0.133675 0 0)
(0.133708 0 0)
(0.133734 0 0)
(0.133767 0 0)
(0.133792 0 0)
(0.133826 0 0)
(0.13385 0 0)
(0.133883 0 0)
(0.133906 0 0)
(0.133939 0 0)
(0.133961 0 0)
(0.133994 0 0)
(0.134015 0 0)
(0.134047 0 0)
(0.134066 0 0)
(0.134098 0 0)
(0.134116 0 0)
(0.134147 0 0)
(0.134164 0 0)
(0.134193 0 0)
(0.134209 0 0)
(0.134237 0 0)
(0.134252 0 0)
(0.134279 0 0)
(0.134292 0 0)
(0.134318 0 0)
(0.13433 0 0)
(0.134353 0 0)
(0.134364 0 0)
(0.134386 0 0)
(0.134395 0 0)
(0.134415 0 0)
(0.134423 0 0)
(0.134441 0 0)
(0.134447 0 0)
(0.134463 0 0)
(0.134467 0 0)
(0.134482 0 0)
(0.134484 0 0)
(0.134498 0 0)
(0.134495 0 0)
(0.13451 0 0)
(0.134503 0 0)
(0.134518 0 0)
(0.134508 0 0)
(0.13452 0 0)
(0.13451 0 0)
(0.134518 0 0)
(0.134509 0 0)
(0.134514 0 0)
(0.134508 0 0)
(0.134513 0 0)
(0.134509 0 0)
(0.134515 0 0)
(0.134507 0 0)
(0.134497 0 0)
(0.134455 0 0)
(0.134395 0 0)
(0.134303 0 0)
(0.134205 0 0)
(0.1341 0 0)
(0.134014 0 0)
(0.133938 0 0)
(0.133885 0 0)
(0.133841 0 0)
(0.133813 0 0)
(0.133788 0 0)
(0.133771 0 0)
(0.133753 0 0)
(0.133739 0 0)
(0.133722 0 0)
(0.133709 0 0)
(0.133692 0 0)
(0.133677 0 0)
(0.133658 0 0)
(0.133642 0 0)
(0.133622 0 0)
(0.133605 0 0)
(0.133584 0 0)
(0.133565 0 0)
(0.133543 0 0)
(0.133522 0 0)
(0.133499 0 0)
(0.133477 0 0)
(0.133453 0 0)
(0.133431 0 0)
(0.133406 0 0)
(0.133382 0 0)
(0.133356 0 0)
(0.133331 0 0)
(0.133305 0 0)
(0.133279 0 0)
(0.133252 0 0)
(0.133226 0 0)
(0.133199 0 0)
(0.133172 0 0)
(0.133144 0 0)
(0.133117 0 0)
(0.133089 0 0)
(0.133061 0 0)
(0.133033 0 0)
(0.133005 0 0)
(0.132977 0 0)
(0.132949 0 0)
(0.13292 0 0)
(0.132892 0 0)
(0.132864 0 0)
(0.132836 0 0)
(0.132809 0 0)
(0.132781 0 0)
(0.132753 0 0)
(0.132726 0 0)
(0.132699 0 0)
(0.132672 0 0)
(0.132646 0 0)
(0.132619 0 0)
(0.132593 0 0)
(0.132567 0 0)
(0.132542 0 0)
(0.132517 0 0)
(0.132492 0 0)
(0.132468 0 0)
(0.132444 0 0)
(0.13242 0 0)
(0.132397 0 0)
(0.132374 0 0)
(0.132352 0 0)
(0.13233 0 0)
(0.132309 0 0)
(0.132288 0 0)
(0.132267 0 0)
(0.132247 0 0)
(0.132228 0 0)
(0.132209 0 0)
(0.13219 0 0)
(0.132172 0 0)
(0.132154 0 0)
(0.132137 0 0)
(0.132121 0 0)
(0.132104 0 0)
(0.132089 0 0)
(0.132073 0 0)
(0.132058 0 0)
(0.132044 0 0)
(0.13203 0 0)
(0.132017 0 0)
(0.132004 0 0)
(0.131991 0 0)
(0.131979 0 0)
(0.131968 0 0)
(0.131957 0 0)
(0.131946 0 0)
(0.131935 0 0)
(0.131925 0 0)
(0.131916 0 0)
(0.131907 0 0)
(0.131898 0 0)
(0.131889 0 0)
(0.131881 0 0)
(0.131873 0 0)
(0.131866 0 0)
(0.131859 0 0)
(0.131852 0 0)
(0.131846 0 0)
(0.13184 0 0)
(0.131834 0 0)
(0.131828 0 0)
(0.131823 0 0)
(0.131818 0 0)
(0.131813 0 0)
(0.131808 0 0)
(0.131804 0 0)
(0.1318 0 0)
(0.131796 0 0)
(0.131793 0 0)
(0.131789 0 0)
(0.131786 0 0)
(0.131783 0 0)
(0.13178 0 0)
(0.131777 0 0)
(0.131774 0 0)
(0.131772 0 0)
(0.13177 0 0)
(0.131767 0 0)
(0.131765 0 0)
(0.131763 0 0)
(0.131762 0 0)
(0.13176 0 0)
(0.131758 0 0)
(0.131757 0 0)
(0.131756 0 0)
(0.131754 0 0)
(0.131753 0 0)
(0.131752 0 0)
(0.131751 0 0)
(0.13175 0 0)
(0.131749 0 0)
(0.131748 0 0)
(0.131747 0 0)
(0.131747 0 0)
(0.131746 0 0)
(0.131745 0 0)
(0.131745 0 0)
(0.131744 0 0)
(0.131744 0 0)
(0.131743 0 0)
(0.131743 0 0)
(0.131742 0 0)
(0.131742 0 0)
(0.131742 0 0)
(0.131741 0 0)
(0.131741 0 0)
(0.131741 0 0)
(0.131741 0 0)
(0.13174 0 0)
(0.13174 0 0)
(0.13174 0 0)
(0.13174 0 0)
(0.13174 0 0)
(0.131739 0 0)
(0.131739 0 0)
(0.131739 0 0)
(0.131739 0 0)
(0.131739 0 0)
(0.131739 0 0)
(0.131739 0 0)
(0.131739 0 0)
(0.131739 0 0)
(0.131739 0 0)
(0.131739 0 0)
(0.131738 0 0)
(0.131738 0 0)
(0.131738 0 0)
(0.131738 0 0)
(0.131738 0 0)
(0.131738 0 0)
(0.131738 0 0)
(0.131738 0 0)
(0.131738 0 0)
(0.131738 0 0)
(0.131738 0 0)
(0.131738 0 0)
(0.131738 0 0)
(0.131738 0 0)
(0.131738 0 0)
(0.131738 0 0)
(0.131738 0 0)
(0.131738 0 0)
(0.131738 0 0)
(0.131738 0 0)
(0.131738 0 0)
(0.131738 0 0)
(0.131738 0 0)
(0.131738 0 0)
(0.131738 0 0)
(0.131738 0 0)
(0.131738 0 0)
(0.131738 0 0)
(0.131738 0 0)
(0.131738 0 0)
(0.131738 0 0)
(0.131738 0 0)
(0.131738 0 0)
(0.131738 0 0)
(0.131738 0 0)
(0.131738 0 0)
(0.131738 0 0)
(0.131738 0 0)
(0.131738 0 0)
(0.131738 0 0)
(0.131738 0 0)
(0.131738 0 0)
(0.131738 0 0)
(0.131738 0 0)
(0.131738 0 0)
(0.131738 0 0)
(0.131738 0 0)
(0.131738 0 0)
(0.131738 0 0)
(0.131738 0 0)
(0.131738 0 0)
(0.131738 0 0)
(0.131738 0 0)
(0.131738 0 0)
(0.131738 0 0)
(0.131738 0 0)
(0.131738 0 0)
(0.131738 0 0)
(0.131738 0 0)
(0.131738 0 0)
(0.131738 0 0)
(0.131738 0 0)
(0.131738 0 0)
(0.131738 0 0)
(0.131738 0 0)
(0.131738 0 0)
(0.131738 0 0)
(0.131738 0 0)
(0.131738 0 0)
(0.131738 0 0)
(0.131738 0 0)
(0.131738 0 0)
(0.131738 0 0)
(0.131738 0 0)
(0.131738 0 0)
(0.131738 0 0)
(0.131738 0 0)
(0.131738 0 0)
(0.131738 0 0)
(0.131738 0 0)
(0.131738 0 0)
(0.131738 0 0)
(0.131738 0 0)
(0.131738 0 0)
(0.131738 0 0)
(0.131738 0 0)
(0.131738 0 0)
(0.131738 0 0)
(0.131738 0 0)
(0.131738 0 0)
(0.131738 0 0)
(0.131738 0 0)
(0.131738 0 0)
(0.131738 0 0)
(0.131738 0 0)
(0.131738 0 0)
(0.131738 0 0)
(0.131738 0 0)
(0.131738 0 0)
(0.131738 0 0)
(0.131738 0 0)
(0.131738 0 0)
(0.131738 0 0)
(0.131738 0 0)
(0.131738 0 0)
(0.131738 0 0)
(0.131738 0 0)
(0.131738 0 0)
(0.131738 0 0)
(0.131738 0 0)
(0.131738 0 0)
(0.131738 0 0)
(0.131738 0 0)
(0.131738 0 0)
(0.131738 0 0)
(0.131738 0 0)
(0.131738 0 0)
(0.131738 0 0)
(0.131738 0 0)
(0.131738 0 0)
(0.131738 0 0)
(0.131738 0 0)
(0.131738 0 0)
(0.131738 0 0)
(0.131738 0 0)
(0.131738 0 0)
(0.131738 0 0)
(0.131738 0 0)
(0.131738 0 0)
(0.131738 0 0)
(0.131738 0 0)
(0.131738 0 0)
(0.131738 0 0)
(0.131738 0 0)
(0.131738 0 0)
(0.131738 0 0)
(0.131738 0 0)
(0.131738 0 0)
(0.131738 0 0)
(0.131738 0 0)
(0.131738 0 0)
(0.131738 0 0)
(0.131738 0 0)
(0.131738 0 0)
(0.131738 0 0)
(0.131738 0 0)
(0.131738 0 0)
(0.131738 0 0)
(0.131738 0 0)
(0.131738 0 0)
(0.131738 0 0)
(0.131738 0 0)
(0.131738 0 0)
(0.131738 0 0)
(0.131738 0 0)
(0.131738 0 0)
(0.131738 0 0)
(0.131738 0 0)
(0.131738 0 0)
(0.131738 0 0)
(0.131738 0 0)
(0.131738 0 0)
(0.131738 0 0)
(0.131738 0 0)
(0.131738 0 0)
(0.131738 0 0)
(0.131738 0 0)
(0.131738 0 0)
(0.131738 0 0)
(0.131738 0 0)
(0.131738 0 0)
(0.131738 0 0)
(0.131738 0 0)
(0.131738 0 0)
(0.131738 0 0)
(0.131738 0 0)
(0.131738 0 0)
(0.131738 0 0)
(0.131738 0 0)
(0.131738 0 0)
(0.131738 0 0)
(0.131738 0 0)
(0.131738 0 0)
(0.131738 0 0)
(0.131738 0 0)
(0.131738 0 0)
(0.131738 0 0)
(0.131738 0 0)
(0.131738 0 0)
(0.131738 0 0)
(0.131738 0 0)
(0.131738 0 0)
(0.131738 0 0)
(0.131738 0 0)
(0.131738 0 0)
(0.131738 0 0)
(0.131738 0 0)
(0.131738 0 0)
(0.131738 0 0)
(0.131738 0 0)
(0.131738 0 0)
(0.131738 0 0)
(0.131738 0 0)
(0.131738 0 0)
(0.131738 0 0)
(0.131738 0 0)
(0.131738 0 0)
(0.131738 0 0)
(0.131738 0 0)
(0.131738 0 0)
(0.131738 0 0)
(0.131738 0 0)
(0.131738 0 0)
(0.131738 0 0)
(0.131738 0 0)
(0.131738 0 0)
(0.131738 0 0)
(0.131738 0 0)
(0.131738 0 0)
(0.131738 0 0)
(0.131738 0 0)
(0.131738 0 0)
(0.131738 0 0)
(0.131738 0 0)
(0.131738 0 0)
(0.131738 0 0)
(0.131738 0 0)
(0.131738 0 0)
(0.131738 0 0)
(0.131738 0 0)
(0.131738 0 0)
(0.131738 0 0)
(0.131738 0 0)
(0.131738 0 0)
(0.131738 0 0)
(0.131738 0 0)
(0.131738 0 0)
(0.131738 0 0)
(0.131738 0 0)
(0.131738 0 0)
(0.131738 0 0)
(0.131738 0 0)
(0.131738 0 0)
(0.131738 0 0)
(0.131738 0 0)
(0.131738 0 0)
(0.131738 0 0)
(0.131738 0 0)
(0.131738 0 0)
(0.131738 0 0)
(0.131738 0 0)
(0.131738 0 0)
(0.131738 0 0)
(0.131738 0 0)
(0.131738 0 0)
(0.131738 0 0)
(0.131738 0 0)
(0.131738 0 0)
(0.131738 0 0)
(0.131738 0 0)
(0.131738 0 0)
(0.131738 0 0)
(0.131738 0 0)
(0.131738 0 0)
(0.131738 0 0)
(0.131738 0 0)
(0.131738 0 0)
(0.131738 0 0)
(0.131738 0 0)
(0.131738 0 0)
(0.131738 0 0)
(0.131738 0 0)
(0.131738 0 0)
(0.131738 0 0)
(0.131738 0 0)
(0.131738 0 0)
(0.131738 0 0)
(0.131738 0 0)
(0.131738 0 0)
(0.131738 0 0)
(0.131738 0 0)
(0.131738 0 0)
(0.131738 0 0)
(0.131738 0 0)
(0.131738 0 0)
(0.131738 0 0)
(0.131738 0 0)
(0.131738 0 0)
(0.131738 0 0)
(0.131738 0 0)
(0.131738 0 0)
(0.131738 0 0)
(0.131738 0 0)
(0.131738 0 0)
(0.131738 0 0)
(0.131738 0 0)
(0.131738 0 0)
(0.131738 0 0)
(0.131738 0 0)
(0.131738 0 0)
(0.131738 0 0)
(0.131738 0 0)
(0.131738 0 0)
(0.131738 0 0)
(0.131738 0 0)
(0.131738 0 0)
(0.131738 0 0)
(0.131738 0 0)
(0.131738 0 0)
(0.131738 0 0)
(0.131738 0 0)
(0.131738 0 0)
(0.131738 0 0)
(0.131738 0 0)
(0.131738 0 0)
(0.131738 0 0)
(0.131738 0 0)
(0.131738 0 0)
(0.131738 0 0)
(0.131738 0 0)
(0.131738 0 0)
(0.131738 0 0)
(0.131738 0 0)
(0.131738 0 0)
(0.131738 0 0)
(0.131738 0 0)
(0.131738 0 0)
(0.131738 0 0)
(0.131738 0 0)
(0.131738 0 0)
(0.131738 0 0)
(0.131738 0 0)
(0.131738 0 0)
(0.131738 0 0)
(0.131738 0 0)
(0.131738 0 0)
(0.131738 0 0)
(0.131738 0 0)
(0.131738 0 0)
(0.131738 0 0)
(0.131738 0 0)
(0.131738 0 0)
(0.131738 0 0)
(0.131738 0 0)
(0.131738 0 0)
(0.131738 0 0)
(0.131738 0 0)
(0.131738 0 0)
(0.131738 0 0)
(0.131738 0 0)
(0.131738 0 0)
(0.131738 0 0)
(0.131738 0 0)
(0.131738 0 0)
(0.131738 0 0)
(0.131738 0 0)
(0.131738 0 0)
(0.131738 0 0)
(0.131738 0 0)
(0.131738 0 0)
(0.131738 0 0)
(0.131738 0 0)
(0.131738 0 0)
(0.131738 0 0)
(0.131738 0 0)
(0.131738 0 0)
(0.131738 0 0)
(0.131738 0 0)
(0.131738 0 0)
(0.131738 0 0)
(0.131738 0 0)
(0.131738 0 0)
(0.131738 0 0)
(0.131738 0 0)
(0.131738 0 0)
(0.131738 0 0)
(0.131738 0 0)
(0.131738 0 0)
(0.131738 0 0)
(0.131738 0 0)
(0.131738 0 0)
(0.131738 0 0)
(0.131738 0 0)
(0.131738 0 0)
(0.131738 0 0)
(0.131738 0 0)
(0.131738 0 0)
(0.131738 0 0)
(0.131738 0 0)
(0.131738 0 0)
(0.131738 0 0)
(0.131738 0 0)
(0.131738 0 0)
(0.131738 0 0)
(0.131738 0 0)
(0.131738 0 0)
(0.131738 0 0)
(0.131738 0 0)
(0.131738 0 0)
(0.131738 0 0)
(0.131738 0 0)
(0.131738 0 0)
(0.131738 0 0)
(0.131738 0 0)
(0.131738 0 0)
(0.131738 0 0)
(0.131738 0 0)
(0.131738 0 0)
(0.131738 0 0)
(0.131738 0 0)
(0.131738 0 0)
(0.131738 0 0)
(0.131738 0 0)
(0.131738 0 0)
(0.131738 0 0)
(0.131738 0 0)
(0.131738 0 0)
(0.131738 0 0)
(0.131738 0 0)
(0.131738 0 0)
(0.131738 0 0)
(0.131738 0 0)
(0.131738 0 0)
(0.131738 0 0)
(0.131738 0 0)
(0.131738 0 0)
(0.131738 0 0)
(0.131738 0 0)
(0.131738 0 0)
(0.131738 0 0)
(0.131738 0 0)
(0.131738 0 0)
(0.131738 0 0)
(0.131738 0 0)
(0.131738 0 0)
(0.131738 0 0)
(0.131738 0 0)
(0.131738 0 0)
(0.131738 0 0)
(0.131738 0 0)
(0.131738 0 0)
(0.131738 0 0)
(0.131738 0 0)
(0.131738 0 0)
(0.131738 0 0)
(0.131738 0 0)
(0.131738 0 0)
(0.131738 0 0)
(0.131738 0 0)
(0.131738 0 0)
(0.131738 0 0)
(0.131738 0 0)
(0.131738 0 0)
(0.131738 0 0)
(0.131738 0 0)
(0.131738 0 0)
(0.131738 0 0)
(0.131738 0 0)
(0.131738 0 0)
(0.131738 0 0)
(0.131738 0 0)
(0.131738 0 0)
(0.131738 0 0)
(0.131738 0 0)
(0.131738 0 0)
(0.131738 0 0)
(0.131738 0 0)
(0.131738 0 0)
(0.131738 0 0)
(0.131738 0 0)
(0.131738 0 0)
(0.131738 0 0)
(0.131738 0 0)
(0.131738 0 0)
(0.131738 0 0)
(0.131738 0 0)
(0.131738 0 0)
(0.131738 0 0)
(0.131738 0 0)
(0.131738 0 0)
(0.131738 0 0)
(0.131738 0 0)
(0.131738 0 0)
(0.131738 0 0)
(0.131738 0 0)
(0.131738 0 0)
(0.131738 0 0)
(0.131738 0 0)
(0.131738 0 0)
(0.131738 0 0)
(0.131738 0 0)
(0.131738 0 0)
(0.131738 0 0)
(0.131738 0 0)
(0.131738 0 0)
(0.131738 0 0)
(0.131738 0 0)
(0.131738 0 0)
(0.131738 0 0)
(0.131738 0 0)
(0.131738 0 0)
(0.131738 0 0)
(0.131738 0 0)
(0.131738 0 0)
(0.131738 0 0)
(0.131738 0 0)
(0.131738 0 0)
(0.131738 0 0)
(0.131738 0 0)
(0.131738 0 0)
(0.131738 0 0)
(0.131738 0 0)
(0.131738 0 0)
(0.131738 0 0)
(0.131738 0 0)
(0.131738 0 0)
(0.131738 0 0)
(0.131738 0 0)
(0.131738 0 0)
(0.131738 0 0)
(0.131738 0 0)
(0.131738 0 0)
(0.131738 0 0)
(0.131738 0 0)
(0.131738 0 0)
(0.131738 0 0)
(0.131738 0 0)
(0.131738 0 0)
(0.131738 0 0)
(0.131738 0 0)
(0.131738 0 0)
(0.131738 0 0)
(0.131738 0 0)
(0.131738 0 0)
(0.131738 0 0)
(0.131738 0 0)
(0.131738 0 0)
(0.131738 0 0)
(0.131738 0 0)
(0.131738 0 0)
(0.131738 0 0)
(0.131738 0 0)
(0.131738 0 0)
(0.131738 0 0)
(0.131738 0 0)
(0.131738 0 0)
(0.131738 0 0)
(0.131738 0 0)
(0.131738 0 0)
(0.131738 0 0)
(0.131738 0 0)
(0.131738 0 0)
(0.131738 0 0)
(0.131738 0 0)
(0.131738 0 0)
(0.131738 0 0)
(0.131738 0 0)
(0.131738 0 0)
(0.131738 0 0)
(0.131738 0 0)
(0.131738 0 0)
(0.131738 0 0)
(0.131738 0 0)
(0.131737 0 0)
(0.131739 0 0)
(0.131737 0 0)
(0.131739 0 0)
(0.131737 0 0)
(0.131739 0 0)
(0.131737 0 0)
(0.131739 0 0)
(0.131737 0 0)
(0.131739 0 0)
(0.131737 0 0)
(0.131739 0 0)
(0.131737 0 0)
(0.131739 0 0)
(0.131736 0 0)
(0.13174 0 0)
(0.131736 0 0)
(0.13174 0 0)
(0.131736 0 0)
(0.13174 0 0)
(0.131735 0 0)
(0.13174 0 0)
(0.131735 0 0)
(0.131741 0 0)
(0.131734 0 0)
(0.131741 0 0)
(0.131734 0 0)
(0.131742 0 0)
(0.131733 0 0)
(0.131742 0 0)
(0.131733 0 0)
(0.131743 0 0)
(0.131732 0 0)
(0.131743 0 0)
(0.131731 0 0)
(0.131744 0 0)
(0.13173 0 0)
(0.131745 0 0)
(0.131729 0 0)
(0.131745 0 0)
(0.131728 0 0)
(0.131746 0 0)
(0.131727 0 0)
(0.131747 0 0)
(0.131726 0 0)
(0.131748 0 0)
(0.131724 0 0)
(0.131749 0 0)
(0.131723 0 0)
(0.13175 0 0)
(0.131721 0 0)
(0.131751 0 0)
(0.131719 0 0)
(0.131752 0 0)
(0.131717 0 0)
(0.131753 0 0)
(0.131715 0 0)
(0.131754 0 0)
(0.131713 0 0)
)
;

boundaryField
{
    topWall
    {
        type            empty;
    }
    bottomWall
    {
        type            empty;
    }
    leftAndRight_half1
    {
        type            cyclic;
    }
    leftAndRight_half0
    {
        type            cyclic;
    }
    frontAndBack
    {
        type            empty;
    }
}


// ************************************************************************* //
