/*--------------------------------*- C++ -*----------------------------------*\
  =========                 |
  \\      /  F ield         | OpenFOAM: The Open Source CFD Toolbox
   \\    /   O peration     | Website:  https://openfoam.org
    \\  /    A nd           | Version:  9
     \\/     M anipulation  |
\*---------------------------------------------------------------------------*/
FoamFile
{
    format      ascii;
    class       volScalarField;
    location    "1";
    object      f_0;
}
// * * * * * * * * * * * * * * * * * * * * * * * * * * * * * * * * * * * * * //

dimensions      [1 -3 0 0 0 0 0];

internalField   nonuniform List<scalar> 
120000
(
-1.93703e+26
-1.72229e+26
7.16066e+26
1.85953e+27
3.63589e+26
-4.69692e+26
-1.33522e+27
-2.24469e+27
-1.2449e+27
-2.98722e+27
-4.37117e+27
-6.90192e+27
-5.85672e+27
-1.1293e+28
-1.67082e+28
-2.5132e+28
-3.86963e+28
-5.44248e+28
-6.80524e+28
-7.63525e+28
-8.91105e+28
-1.77626e+29
-6.42576e+29
-2.08616e+30
-3.28725e+30
-4.64857e+30
-7.04479e+30
-1.0619e+31
-1.98964e+31
-3.21777e+31
-4.72236e+31
-6.76079e+31
-1.08849e+32
-2.07716e+32
-3.46046e+32
-5.27145e+32
-7.94466e+32
-1.28128e+33
-2.2049e+33
-3.97602e+33
-7.09646e+33
-1.19682e+34
-2.00669e+34
-3.31985e+34
-5.50369e+34
-9.07016e+34
-1.49241e+35
-2.4337e+35
-3.9433e+35
-6.38628e+35
-9.90308e+35
-1.50591e+36
-2.28105e+36
-3.54128e+36
-5.32136e+36
-7.94385e+36
-1.18431e+37
-1.74643e+37
-2.55858e+37
-3.65999e+37
-5.11591e+37
-6.43101e+37
-6.50214e+37
-9.17576e+37
-5.14281e+38
1.61949e+39
-1.63201e+40
8.52671e+39
1.48968e+40
3.08154e+40
7.72051e+40
1.67419e+41
1.62755e+41
-2.6939e+40
1.26328e+40
-1.4151e+41
3.08533e+39
-2.01713e+41
3.33879e+42
-9.72626e+41
-2.1602e+42
-6.90942e+42
-3.262e+43
-1.42273e+44
-6.11941e+44
-2.33816e+45
-7.15733e+45
-1.58477e+44
-9.09824e+42
-9.71806e+42
3.70972e+44
-2.32501e+43
8.95255e+42
4.74102e+42
-1.3535e+43
2.73029e+42
4.45664e+43
-3.75608e+42
-3.59581e+42
-1.30308e+43
-1.41081e+43
7.77368e+42
-9.82046e+43
8.04748e+44
3.29944e+44
3.31152e+44
9.17166e+43
-1.99656e+44
-2.01054e+44
-2.71114e+44
-3.17355e+44
-4.01527e+44
-5.13951e+44
-7.72285e+44
-1.06601e+45
4.69757e+44
-1.57023e+45
-1.38113e+46
-2.43558e+46
-2.58726e+46
-2.7896e+46
1.86869e+48
-1.56106e+47
-1.61978e+47
-6.21929e+47
-3.5626e+47
-1.05073e+47
1.6945e+47
-2.29778e+48
-3.99751e+48
6.06444e+48
8.52242e+48
1.35127e+49
3.27823e+49
7.93381e+49
2.16967e+50
4.91468e+50
1.03472e+51
-1.19505e+51
5.18814e+50
-7.67242e+49
6.96003e+51
1.16211e+52
1.69843e+52
2.21433e+52
2.58189e+52
2.62316e+52
2.207e+52
1.26421e+52
3.62476e+51
3.50613e+51
2.55446e+51
3.07347e+50
-2.41398e+51
-4.20893e+51
-1.74228e+52
-2.73546e+52
-8.05965e+52
-1.25045e+53
-3.06329e+53
-6.7294e+53
-1.50206e+54
-3.36714e+54
-8.80272e+54
-7.80594e+54
-5.64081e+54
-2.16452e+55
-4.90459e+55
-1.11136e+56
-2.64008e+56
-3.51752e+56
-8.82697e+56
-2.34193e+57
-4.43334e+57
-6.17363e+57
-9.67444e+57
-1.44854e+58
-2.10738e+58
-2.97405e+58
-4.01187e+58
-5.06126e+58
-5.62078e+58
-4.91794e+58
-2.8177e+58
-1.42163e+58
-1.42542e+59
-4.89141e+59
-6.70232e+59
-2.86192e+60
-3.49751e+60
-1.7863e+60
1.58527e+61
-8.87158e+59
4.23409e+60
9.0222e+60
1.00142e+61
4.07959e+61
3.44529e+61
5.40749e+61
8.07103e+61
9.86557e+61
1.42362e+62
3.39469e+62
6.03892e+62
-1.68284e+62
-2.36439e+63
-7.08367e+63
-1.92092e+64
-5.19158e+64
-1.40366e+65
-3.78877e+65
-1.0188e+66
-2.70166e+66
-7.09181e+66
-1.90913e+67
-5.41752e+67
1.90082e+67
2.93221e+66
1.68325e+67
4.3737e+67
8.83311e+67
9.87997e+67
5.23793e+68
-2.10404e+67
-4.36823e+67
-1.3003e+68
-2.43521e+68
-6.35859e+68
-1.52337e+69
-3.5014e+69
-7.72714e+69
-1.78788e+70
-3.14404e+70
-5.48768e+70
-1.03366e+71
-2.38894e+71
-5.77457e+71
-1.50085e+72
3.95864e+72
-1.37479e+71
-3.53751e+72
-5.57829e+72
-6.4479e+72
-6.52568e+72
-4.04615e+72
-1.50584e+73
2.31373e+72
2.80779e+72
6.1914e+72
1.88491e+73
2.31107e+73
2.88729e+73
-1.64973e+71
7.85848e+71
7.93717e+71
9.16179e+72
2.31734e+73
3.80068e+73
3.93614e+73
2.51379e+73
-1.30555e+73
2.46276e+73
-4.47334e+73
7.90371e+74
-8.9374e+74
-7.2989e+74
-3.96026e+74
-4.5723e+74
-6.97947e+74
-1.28774e+75
-2.79018e+75
-6.01123e+75
-1.37357e+76
-3.09158e+76
-6.17137e+76
-1.40211e+77
-3.04578e+77
-5.99098e+77
-7.78822e+77
-9.83098e+77
-4.1518e+78
3.14525e+77
9.19731e+77
4.21632e+77
6.69293e+77
2.85738e+78
-1.63244e+78
-6.06496e+77
-2.01456e+78
1.07218e+78
3.36155e+78
9.57228e+78
3.32818e+79
8.00094e+79
1.31216e+80
1.57302e+80
-3.36082e+79
8.77966e+78
-9.94285e+80
-3.04276e+81
-1.20479e+81
6.5937e+80
-2.30946e+82
-2.29641e+82
-1.91339e+82
-4.00592e+81
9.58891e+81
6.4022e+80
-5.94067e+80
-3.38047e+81
-3.97602e+81
-9.14929e+81
1.69963e+81
7.82857e+81
1.1188e+82
7.62911e+81
-7.27488e+80
9.59541e+81
5.11546e+82
9.29149e+82
1.6228e+83
1.99129e+83
2.30694e+83
1.44479e+83
-3.59466e+82
-6.24372e+81
-3.20088e+82
1.97881e+83
-4.2449e+82
-1.60728e+82
-6.88179e+82
-1.73777e+83
-1.19287e+83
3.92839e+82
-2.76338e+82
2.19196e+83
-3.89729e+83
-5.31881e+83
-5.43854e+83
-7.67453e+83
-7.64537e+83
-2.42086e+82
1.36026e+84
1.51335e+85
1.7196e+85
-7.05499e+85
4.37092e+84
1.96313e+85
1.05975e+86
5.32172e+83
-1.02182e+86
9.60728e+85
1.61758e+86
-1.04835e+86
-5.64183e+86
-1.82058e+87
-5.48572e+87
-1.60657e+88
-4.5053e+88
-1.19281e+89
-2.9727e+89
-7.01967e+89
-1.5847e+90
-3.4453e+90
-7.25169e+90
-1.48614e+91
-2.9711e+91
-5.81071e+91
-1.11344e+92
-2.09285e+92
-3.86267e+92
-7.00529e+92
-1.24906e+93
-2.19043e+93
-3.77909e+93
-6.41562e+93
-1.07186e+94
-1.76244e+94
-2.85218e+94
-4.54276e+94
-7.12075e+94
-1.09842e+95
-1.66733e+95
-2.49026e+95
-3.65934e+95
-5.29006e+95
-7.52279e+95
-1.05226e+96
-1.44764e+96
-1.9586e+96
-2.60602e+96
-3.41004e+96
-4.38659e+96
-5.54807e+96
-6.89933e+96
-8.43909e+96
-1.01384e+97
-1.19792e+97
-1.39131e+97
-1.58826e+97
-1.7818e+97
-1.96395e+97
-2.126e+97
-2.2588e+97
-2.35298e+97
-2.39909e+97
-2.38782e+97
-2.31067e+97
-2.16326e+97
-1.955e+97
-1.74054e+97
-1.69438e+97
-2.21123e+97
-4.05558e+97
-8.82148e+97
-2.0079e+98
-4.47854e+98
-9.66918e+98
-2.01821e+99
-4.12926e+99
-8.25027e+99
-1.61332e+100
-3.09394e+100
-5.82715e+100
-1.07899e+101
-1.96591e+101
-3.5266e+101
-6.23172e+101
-1.08512e+102
-1.86242e+102
-3.15137e+102
-5.25772e+102
-8.64982e+102
-1.40329e+103
-2.24504e+103
-3.54184e+103
-5.50993e+103
-8.45188e+103
-1.27828e+104
-1.90605e+104
-2.80194e+104
-4.06049e+104
-5.80085e+104
-8.16989e+104
-1.13449e+105
-1.55365e+105
-2.09917e+105
-2.8001e+105
-3.69131e+105
-4.81668e+105
-6.2355e+105
-8.03457e+105
-1.03503e+106
-1.34069e+106
-1.75812e+106
-2.35099e+106
-3.22625e+106
-4.56169e+106
-6.64931e+106
-9.96243e+106
-1.52586e+107
-2.37351e+107
-3.72621e+107
-5.87262e+107
-9.25339e+107
-1.45336e+108
-2.27061e+108
-3.52369e+108
-5.42665e+108
-8.28856e+108
-1.25506e+109
-1.88356e+109
-2.8012e+109
-4.12768e+109
-6.02597e+109
-8.7152e+109
-1.24862e+110
-1.772e+110
-2.4909e+110
-3.46805e+110
-4.78223e+110
-6.53085e+110
-8.83244e+110
-1.18288e+111
-1.56867e+111
-2.05979e+111
-2.67789e+111
-3.44682e+111
-4.3921e+111
-5.5402e+111
-6.91751e+111
-8.54898e+111
-1.04565e+112
-1.26568e+112
-1.51596e+112
-1.79651e+112
-2.10613e+112
-2.4422e+112
-2.80035e+112
-3.17423e+112
-3.55515e+112
-3.93154e+112
-4.28835e+112
-4.60591e+112
-4.85854e+112
-5.01273e+112
-5.02596e+112
-4.84807e+112
-4.42876e+112
-3.73353e+112
-2.75931e+112
-1.54568e+112
5.50899e+109
2.13446e+112
5.03103e+112
9.34835e+112
1.50099e+113
2.21966e+113
3.10183e+113
4.16546e+113
5.4282e+113
6.90364e+113
8.59847e+113
1.05108e+114
1.26288e+114
1.49302e+114
1.73813e+114
1.99368e+114
2.25413e+114
2.51298e+114
2.76307e+114
2.99682e+114
3.20663e+114
3.38523e+114
3.5261e+114
3.6238e+114
3.67434e+114
3.67538e+114
3.62643e+114
3.52887e+114
3.38592e+114
3.20246e+114
2.98479e+114
2.74028e+114
2.47697e+114
2.20319e+114
1.92712e+114
1.65642e+114
1.39786e+114
1.15712e+114
9.38541e+113
7.45062e+113
5.78176e+113
4.38011e+113
3.23481e+113
2.32524e+113
1.62391e+113
1.09957e+113
7.19976e+112
4.53462e+112
2.69981e+112
1.47977e+112
7.47283e+110
1.23671e+110
-6.49834e+108
-8.78426e+108
1.73618e+109
2.64271e+110
-6.59146e+108
-5.9353e+108
-1.68522e+108
-1.84202e+108
-2.17119e+108
-4.20327e+108
-2.51433e+108
-1.86247e+108
-5.04335e+107
2.02517e+106
-7.09435e+106
1.56918e+108
5.7658e+107
8.74623e+106
1.76873e+106
-2.0677e+106
-2.23112e+106
-1.10615e+106
-3.47753e+106
-6.36862e+106
-1.0879e+107
-2.61828e+107
-3.61192e+107
9.29389e+106
9.45713e+105
1.27086e+106
-3.73384e+107
-4.19565e+107
-4.46109e+107
-4.75643e+107
-4.334e+107
-8.0207e+107
2.08496e+25
4.7471e+26
6.98628e+26
5.5082e+26
1.8906e+26
-2.16439e+26
1.74112e+26
1.14134e+26
-1.16571e+27
-2.62761e+27
-3.81626e+27
-6.98932e+27
-9.23565e+27
-1.3147e+28
-1.263e+28
-1.64799e+28
-2.42692e+28
-3.77643e+28
-4.72966e+28
-4.88745e+28
-7.01383e+28
-1.34003e+28
-6.56799e+28
4.64568e+29
7.11376e+27
1.4111e+29
-6.57964e+29
-5.84415e+29
-2.24716e+30
-3.9454e+30
-6.5238e+30
-8.00146e+30
-2.508e+31
-3.778e+31
-4.95515e+31
-7.48523e+31
-1.06281e+32
-1.91048e+32
-3.59512e+32
-6.85188e+32
-1.29541e+33
-2.63462e+33
-5.34854e+33
-9.58482e+33
-1.73373e+34
-2.82742e+34
-4.24861e+34
-5.37507e+34
-7.96504e+34
-1.56174e+35
-2.6239e+35
-4.03462e+35
-6.19133e+35
-1.28983e+36
-2.35675e+36
-4.35571e+36
-8.20677e+36
-1.55161e+37
-3.00358e+37
-5.82615e+37
-1.17784e+38
-2.39099e+38
-4.87369e+38
-9.7427e+38
-1.08504e+39
-1.06348e+39
5.70495e+39
1.69271e+39
3.57404e+39
1.07233e+40
2.3815e+40
1.64299e+40
9.25524e+40
1.11303e+41
1.73728e+41
1.31601e+41
2.75216e+41
4.32543e+41
4.25643e+41
1.69973e+42
-4.89705e+42
-2.01069e+43
-6.49876e+43
-1.98943e+44
-5.72958e+44
-1.62434e+45
2.40979e+45
-3.73078e+44
2.91673e+43
-2.82253e+43
-1.67849e+43
3.32019e+43
-2.00254e+42
4.54031e+42
8.26053e+42
7.35019e+42
-2.01764e+43
1.02907e+43
-2.90842e+42
-6.75001e+42
-1.57085e+43
-6.56968e+43
2.13787e+45
-1.43063e+44
-1.7087e+43
1.02802e+43
-3.29048e+43
-2.28031e+43
4.90085e+43
-1.45977e+44
6.93617e+43
1.04565e+44
2.3621e+44
5.81968e+44
1.86712e+45
8.30864e+45
1.34828e+46
2.45711e+46
3.32985e+46
2.17363e+46
1.04164e+46
1.61318e+48
-2.7462e+45
-1.92623e+46
1.24355e+47
2.52287e+45
2.75733e+47
3.81748e+46
3.16839e+47
-1.40265e+48
-4.90292e+49
-1.88759e+49
-2.42233e+48
-1.3997e+48
-1.6956e+48
2.23269e+49
-3.30944e+49
-9.19909e+49
-9.33094e+50
6.88769e+49
-4.46393e+49
-8.60433e+50
-1.69894e+51
-2.64023e+51
-3.63997e+51
-4.48223e+51
-4.77291e+51
-4.22841e+51
-2.54311e+51
-5.67986e+50
-1.24393e+50
4.50042e+50
2.06779e+50
-3.59175e+51
-9.44296e+51
-1.64805e+52
-5.57213e+52
-2.4832e+52
-1.92368e+53
-3.33916e+53
-5.93509e+53
-1.16408e+54
-2.09705e+54
-3.60464e+54
-6.54057e+54
-1.12432e+55
-1.9359e+55
-2.98877e+55
-4.9609e+55
-4.19683e+55
-2.34594e+56
1.17916e+56
4.83404e+56
8.48174e+56
1.61717e+57
2.43407e+57
4.14093e+57
7.17651e+57
1.16424e+58
1.87899e+58
3.02631e+58
4.81867e+58
7.80234e+58
1.40775e+59
2.90069e+59
5.2719e+59
6.35367e+59
6.46059e+59
9.01313e+59
5.27203e+60
4.98187e+61
-1.71025e+62
-5.94216e+61
-1.97821e+61
-1.1716e+61
-5.68697e+60
-8.96975e+60
3.77011e+61
7.53967e+61
1.59069e+62
3.32631e+62
6.26989e+62
1.09405e+63
1.28006e+63
-1.20301e+63
-1.35493e+63
-1.82922e+63
-2.43105e+63
-3.13173e+63
-3.85175e+63
-3.84957e+63
-9.86902e+62
7.50518e+63
4.57838e+64
2.6443e+65
3.6426e+65
-5.36557e+65
1.29013e+66
2.5967e+66
2.41604e+67
1.33764e+68
-2.61324e+68
-4.63003e+68
-1.17351e+67
-1.72507e+66
1.82003e+67
-7.44199e+67
-1.07102e+68
-2.79637e+68
-4.81339e+68
-1.61926e+69
-4.45288e+69
-1.04924e+70
-1.52925e+70
2.51868e+69
-4.07734e+70
-1.868e+71
-6.61931e+70
8.04467e+70
-2.53047e+71
-4.03268e+71
-4.1467e+71
2.92045e+71
-1.00237e+72
5.1714e+71
4.60978e+71
-2.9903e+70
-3.56862e+71
-4.05698e+71
-1.49332e+72
-3.47298e+72
-6.4224e+72
1.46018e+71
4.58535e+71
7.85299e+71
-7.97704e+71
-7.61905e+72
-1.39269e+73
-1.85915e+73
-2.93907e+73
-9.07554e+73
-3.07457e+72
7.05836e+72
1.75936e+75
3.78179e+74
-4.44098e+74
-2.49629e+74
-2.58692e+74
-4.94695e+74
5.21681e+74
1.14564e+75
3.43665e+75
5.85309e+75
1.00213e+76
2.89863e+76
4.06411e+76
7.55344e+76
1.28118e+77
2.90645e+77
6.31569e+77
3.19368e+77
1.14744e+77
2.874e+77
1.47421e+78
-1.0398e+78
-2.33147e+78
-8.00924e+77
-7.34796e+77
-5.87224e+77
-2.19569e+77
-7.52047e+77
-1.33309e+78
-2.47613e+78
-1.74174e+78
5.13104e+78
2.88182e+79
1.39119e+79
7.01893e+79
2.49635e+80
1.01399e+81
3.25843e+81
-5.23889e+81
6.43187e+81
1.94545e+81
8.79441e+81
4.05552e+80
-4.47032e+81
3.32202e+81
-5.01688e+80
-8.41569e+80
-1.0567e+80
7.81393e+80
-1.40153e+81
-1.50609e+81
-1.85259e+81
-1.68165e+81
-1.17304e+81
2.74262e+81
2.18877e+81
6.34692e+80
-1.64197e+82
-1.38277e+82
2.45441e+82
-1.52916e+82
-5.61364e+81
6.40839e+81
2.60022e+81
4.14917e+82
-1.90728e+82
-3.66487e+82
-3.07392e+82
-2.51454e+83
-1.94543e+83
-9.48006e+82
-1.28684e+83
-7.09816e+82
8.28376e+82
-3.8059e+82
-3.22576e+83
1.10836e+83
3.16359e+84
-7.57104e+83
-1.57516e+84
5.88984e+84
-4.48395e+83
1.93808e+85
-5.24502e+84
5.42217e+84
-2.67689e+84
4.07831e+85
4.63024e+85
7.61338e+85
1.24643e+86
2.17185e+86
3.97822e+86
7.45515e+86
1.4178e+87
2.71587e+87
5.20306e+87
1.01426e+88
2.08133e+88
4.50954e+88
1.02965e+89
2.35472e+89
5.27397e+89
1.15362e+90
2.44828e+90
5.04755e+90
1.01369e+91
1.9859e+91
3.80281e+91
7.1307e+91
1.31079e+92
2.36424e+92
4.1869e+92
7.28358e+92
1.24509e+93
2.09199e+93
3.45534e+93
5.61091e+93
8.95786e+93
1.40607e+94
2.16989e+94
3.29219e+94
4.91059e+94
7.20052e+94
1.03787e+95
1.47035e+95
2.04715e+95
2.80096e+95
3.76602e+95
4.97461e+95
6.45943e+95
8.23615e+95
1.03259e+96
1.2697e+96
1.53852e+96
1.8286e+96
2.13524e+96
2.44929e+96
2.75968e+96
3.05366e+96
3.31732e+96
3.53601e+96
3.69447e+96
3.77561e+96
3.75681e+96
3.59905e+96
3.21633e+96
2.43538e+96
1.30124e+96
8.784e+95
1.49663e+96
2.56409e+96
6.21225e+96
1.28012e+97
2.32278e+97
6.24574e+97
1.46586e+98
3.20565e+98
6.77492e+98
1.39235e+99
2.79356e+99
5.46957e+99
1.04886e+100
1.97202e+100
3.64029e+100
6.60421e+100
1.1784e+101
2.06917e+101
3.577e+101
6.08971e+101
1.02124e+102
1.68723e+102
2.74653e+102
4.40531e+102
6.96237e+102
1.08423e+103
1.66362e+103
2.51498e+103
3.74575e+103
5.49595e+103
7.94383e+103
1.13108e+104
1.58653e+104
2.1925e+104
2.98587e+104
4.00881e+104
5.30971e+104
6.94548e+104
8.98731e+104
1.15327e+105
1.47285e+105
1.88143e+105
2.4197e+105
3.15799e+105
4.21743e+105
5.80421e+105
8.26369e+105
1.2165e+106
1.84318e+106
2.85441e+106
4.4842e+106
7.09822e+106
1.12611e+107
1.78348e+107
2.81197e+107
4.40563e+107
6.85067e+107
1.05645e+108
1.61487e+108
2.44607e+108
3.67069e+108
5.45657e+108
8.03423e+108
1.17163e+109
1.69213e+109
2.4202e+109
3.42786e+109
4.80763e+109
6.67658e+109
9.18062e+109
1.24987e+110
1.68465e+110
2.24795e+110
2.96942e+110
3.88276e+110
5.02541e+110
6.43781e+110
8.16231e+110
1.02416e+111
1.27167e+111
1.56242e+111
1.89935e+111
2.28431e+111
2.71771e+111
3.19814e+111
3.72196e+111
4.28295e+111
4.87192e+111
5.47626e+111
6.07939e+111
6.65986e+111
7.18989e+111
7.63289e+111
7.93973e+111
8.04399e+111
7.85931e+111
7.28902e+111
6.27036e+111
4.8805e+111
3.4653e+111
-1.20611e+111
-2.2105e+111
-5.79968e+111
-1.2295e+112
-2.08368e+112
-3.16749e+112
-4.49528e+112
-6.10236e+112
-8.02266e+112
-1.02812e+113
-1.28908e+113
-1.58505e+113
-1.91435e+113
-2.27364e+113
-2.65773e+113
-3.05958e+113
-3.4704e+113
-3.87987e+113
-4.27648e+113
-4.64803e+113
-4.98222e+113
-5.26726e+113
-5.49252e+113
-5.64915e+113
-5.73059e+113
-5.73302e+113
-5.65558e+113
-5.5005e+113
-5.27296e+113
-4.98089e+113
-4.6345e+113
-4.24572e+113
-3.82762e+113
-3.39363e+113
-2.95694e+113
-2.52984e+113
-2.12319e+113
-1.746e+113
-1.40513e+113
-1.10512e+113
-8.48153e+112
-6.34194e+112
-4.61205e+112
-3.25554e+112
-2.2252e+112
-1.46872e+112
-9.34206e+111
-5.70615e+111
-3.23631e+111
-1.34636e+111
2.08683e+110
3.0398e+109
-4.35707e+109
-1.62557e+109
3.82709e+108
-4.24483e+109
-6.73241e+107
1.76148e+107
-9.77027e+106
-1.96494e+107
-2.91972e+107
5.87729e+108
9.12067e+106
1.10882e+107
3.90803e+106
1.36888e+103
-2.10667e+106
2.03323e+107
1.17524e+107
3.33247e+106
1.26954e+106
1.39049e+106
4.19076e+105
9.37264e+105
-1.04531e+106
6.20666e+105
8.02203e+105
-1.57036e+105
2.20555e+106
-9.30483e+105
4.6094e+104
5.13532e+104
6.62561e+106
6.81432e+106
7.05759e+106
7.64944e+106
7.07651e+106
2.03836e+107
-4.10601e+26
8.74668e+25
-1.26341e+26
-1.20493e+26
4.1653e+25
-2.32258e+26
-2.67343e+26
-6.44445e+26
-1.56241e+27
-2.75686e+27
-4.43366e+27
-8.39987e+27
-1.78042e+28
-2.87843e+28
-2.95797e+28
-4.01602e+28
-5.33961e+28
-8.2275e+28
-9.34264e+28
-8.00398e+28
-1.30147e+29
-3.95304e+28
-6.24652e+29
-2.92819e+30
-5.5028e+30
-6.45245e+30
-2.15609e+30
-2.72082e+30
-4.41358e+30
-7.87451e+30
-1.35153e+31
-1.65784e+31
-3.96282e+31
-6.5034e+31
-1.18476e+32
-1.66688e+32
-2.78655e+32
-5.07737e+32
-8.82164e+32
-1.49641e+33
-2.57192e+33
-4.60067e+33
-8.86804e+33
-1.58486e+34
-3.00362e+34
-5.34416e+34
-9.01405e+34
-1.21683e+35
-1.84044e+35
-3.57355e+35
-5.96173e+35
-9.09942e+35
-1.41769e+36
-2.51324e+36
-4.20661e+36
-7.17029e+36
-1.28545e+37
-2.28159e+37
-4.03895e+37
-6.58395e+37
-1.11817e+38
-1.89012e+38
-3.02078e+38
-4.37688e+38
-1.12877e+39
8.79055e+37
-1.52943e+39
2.05056e+38
3.1491e+38
-9.0053e+38
-3.03098e+39
-1.71753e+40
-5.16894e+40
-6.52496e+40
-4.01458e+40
2.59918e+40
3.24932e+39
-1.49973e+41
-7.70456e+41
-2.51931e+42
-7.06075e+42
-1.99896e+43
-5.63145e+43
-1.31176e+44
-2.16166e+44
-2.43008e+44
9.96519e+44
7.57051e+43
7.85925e+43
6.66722e+42
-3.91393e+43
5.59177e+42
2.53713e+42
-3.97666e+41
1.3749e+42
-2.87848e+40
-1.11501e+42
1.10929e+42
-1.90288e+42
7.61216e+41
9.02183e+42
4.32344e+43
-5.65492e+43
-2.24146e+43
-7.63129e+42
-1.11577e+43
1.48092e+43
-7.53314e+42
1.67888e+44
-5.67983e+44
-1.96664e+44
-6.87595e+44
-9.21525e+44
-3.2652e+45
-1.61542e+46
-5.41883e+46
-9.56361e+46
1.27219e+46
3.23378e+46
2.33374e+46
5.32406e+46
3.17816e+48
1.22776e+46
2.47497e+45
8.41466e+46
-1.60057e+47
3.18717e+47
9.08648e+46
6.63464e+46
-2.12768e+48
-1.59794e+49
1.71178e+49
2.89079e+49
5.84377e+48
2.41219e+49
-2.62572e+49
2.36452e+49
-2.09925e+50
-2.02392e+50
1.75353e+50
1.89442e+49
-1.03896e+50
-1.86633e+50
-2.89522e+50
-3.92284e+50
-4.70023e+50
-5.07934e+50
-5.04609e+50
-1.78516e+50
7.67457e+49
4.89565e+50
1.03636e+51
5.21083e+50
1.99337e+51
9.74267e+49
-9.78431e+51
5.82353e+51
-4.64687e+52
-2.66003e+52
-4.81809e+52
-8.66659e+52
-2.73302e+53
-4.77033e+53
-9.51004e+53
-1.60813e+54
-3.83704e+54
-1.14248e+55
-2.50929e+55
-2.67859e+55
-2.12013e+55
9.97494e+55
-6.66358e+56
3.48515e+56
-5.58528e+56
3.88437e+55
-1.00636e+57
-2.74796e+57
-1.26683e+57
3.18068e+57
6.80371e+57
1.39751e+58
2.83318e+58
5.33103e+58
9.82694e+58
1.83303e+59
2.72075e+59
3.31132e+59
1.41742e+60
3.64793e+60
1.17072e+61
2.18609e+61
-9.75262e+61
-3.71743e+61
9.75728e+60
1.76769e+61
-3.54708e+60
-1.90191e+61
-3.60558e+61
-5.18594e+61
-6.71995e+61
-9.92377e+61
-1.95242e+62
-3.74395e+62
-6.50599e+62
-1.06627e+63
-1.54116e+63
-2.15029e+63
-2.71883e+63
-2.93743e+63
-2.37851e+63
-1.18677e+63
-1.33931e+63
-1.45784e+64
-6.45153e+64
5.73207e+65
2.0164e+66
-7.47784e+65
-3.23265e+66
-1.32632e+67
-4.99775e+67
-1.63883e+68
-5.21687e+68
-1.74653e+69
-6.09013e+66
-1.35954e+67
1.02544e+68
1.82555e+68
2.00528e+68
3.95262e+68
-5.12605e+68
-5.4767e+68
-2.29407e+69
-8.61231e+69
-2.72807e+70
-5.67607e+69
8.64561e+70
-1.70424e+70
1.84005e+72
-8.10412e+71
-2.86064e+72
1.77527e+70
-5.80942e+71
7.00092e+71
9.70337e+71
-2.29211e+71
1.53662e+71
7.98958e+70
-3.75393e+71
-6.87409e+71
-1.5415e+72
-5.35015e+72
-1.09099e+73
1.8059e+72
-1.44084e+72
2.63879e+72
8.59458e+71
-2.7741e+72
-6.81686e+72
-1.05201e+73
-1.95669e+73
-5.4578e+73
2.00836e+73
-4.18004e+73
-2.43556e+74
-2.18077e+74
-3.18613e+74
-4.36701e+74
-6.61808e+74
-1.05882e+75
-1.54213e+75
-2.10353e+75
-2.06845e+75
-1.33424e+75
2.00773e+73
-8.08186e+75
9.42837e+75
1.58856e+76
2.01128e+76
5.5651e+76
5.94416e+76
1.50014e+77
-2.18833e+77
-5.14028e+77
-1.01255e+78
3.08971e+75
2.23564e+78
2.62882e+78
-6.59753e+77
-1.70825e+78
5.55959e+77
2.15138e+78
1.59206e+78
-1.36273e+78
-6.03413e+78
-1.03833e+79
8.20156e+78
3.32981e+79
2.27158e+80
5.43445e+80
1.53342e+81
5.18416e+81
3.72575e+81
-5.08666e+80
2.73458e+80
-1.57945e+81
-1.54322e+80
2.2288e+80
-1.18407e+81
-7.60718e+79
-7.74536e+80
-3.52777e+80
1.01694e+81
-1.91637e+81
2.37914e+80
1.03709e+80
4.72466e+79
4.99662e+80
2.4954e+81
-8.16296e+80
-5.53105e+80
-3.54897e+81
-1.92483e+81
-4.16354e+81
-1.17253e+81
3.01975e+81
2.00216e+81
1.751e+81
1.70524e+82
-8.61105e+82
-3.43746e+82
-5.50957e+82
-1.37592e+83
-2.78543e+83
-2.42823e+83
-1.83562e+83
-8.96883e+82
2.49987e+83
-2.11952e+82
-1.46941e+82
1.82314e+83
2.689e+84
-6.82097e+82
-3.80505e+83
-1.6836e+84
-1.02049e+84
1.29692e+85
1.05783e+84
-2.17754e+84
1.32994e+85
5.90886e+84
1.02242e+85
2.75281e+85
3.73144e+85
5.16264e+85
8.91685e+85
1.85013e+86
4.25468e+86
1.00072e+87
2.18866e+87
2.4721e+87
-9.14086e+86
3.16055e+87
6.33167e+87
5.11604e+87
3.44304e+88
1.26272e+89
2.93491e+89
6.19622e+89
1.24699e+90
2.4384e+90
4.65782e+90
8.69495e+90
1.58971e+91
2.85068e+91
5.01839e+91
8.6785e+91
1.47498e+92
2.46447e+92
4.04909e+92
6.54265e+92
1.03981e+93
1.62543e+93
2.49892e+93
3.77742e+93
5.6118e+93
8.18922e+93
1.17354e+94
1.65283e+94
2.2921e+94
3.13251e+94
4.20155e+94
5.55601e+94
7.18135e+94
9.23815e+94
1.1394e+95
1.47272e+95
1.68586e+95
2.00038e+95
2.33087e+95
2.66924e+95
3.00295e+95
3.31849e+95
3.60193e+95
3.83839e+95
4.01282e+95
4.11147e+95
4.12296e+95
4.03707e+95
3.83812e+95
3.44637e+95
2.869e+95
1.26563e+95
-2.60232e+95
1.36751e+96
-3.1735e+95
3.09726e+96
-4.13191e+96
1.55356e+95
1.1678e+97
3.12699e+97
7.52138e+97
1.70927e+98
3.42406e+98
6.7303e+98
1.28692e+99
2.4109e+99
4.42921e+99
7.9941e+99
1.41886e+100
2.47819e+100
4.26154e+100
7.21761e+100
1.20426e+101
1.97982e+101
3.20739e+101
5.12065e+101
8.05663e+101
1.2492e+102
1.90875e+102
2.87398e+102
4.26399e+102
6.23343e+102
8.97849e+102
1.27423e+103
1.78191e+103
2.45576e+103
3.33634e+103
4.47044e+103
5.91252e+103
7.7281e+103
1.00014e+104
1.28505e+104
1.64564e+104
2.1114e+104
2.73212e+104
3.59277e+104
4.83802e+104
6.71179e+104
9.62024e+104
1.42302e+105
2.16213e+105
3.3517e+105
5.26344e+105
8.32038e+105
1.31735e+106
2.08134e+106
3.27297e+106
5.11387e+106
7.92993e+106
1.2195e+107
1.85904e+107
2.80836e+107
4.20334e+107
6.23239e+107
9.15367e+107
1.33163e+108
1.91867e+108
2.7379e+108
3.86918e+108
5.4148e+108
7.50393e+108
1.02971e+109
1.39909e+109
1.88216e+109
2.50682e+109
3.3054e+109
4.31457e+109
5.57492e+109
7.13018e+109
9.02603e+109
1.13084e+110
1.4021e+110
1.72029e+110
2.08848e+110
2.50858e+110
2.98089e+110
3.50372e+110
4.07297e+110
4.68168e+110
5.31963e+110
5.97278e+110
6.62261e+110
7.245e+110
7.8085e+110
8.27144e+110
8.57785e+110
8.65314e+110
8.4044e+110
7.7386e+110
6.62012e+110
5.15094e+110
3.59884e+110
-5.44528e+109
-2.56466e+110
-6.84122e+110
-1.40209e+111
-2.33488e+111
-3.5243e+111
-4.98463e+111
-6.74978e+111
-8.85365e+111
-1.13223e+112
-1.41692e+112
-1.73927e+112
-2.09741e+112
-2.48765e+112
-2.90431e+112
-3.33977e+112
-3.7845e+112
-4.22735e+112
-4.65593e+112
-5.05713e+112
-5.41774e+112
-5.72511e+112
-5.96784e+112
-6.13646e+112
-6.22395e+112
-6.22622e+112
-6.14238e+112
-5.97482e+112
-5.72912e+112
-5.41379e+112
-5.03979e+112
-4.61993e+112
-4.16822e+112
-3.69913e+112
-3.22682e+112
-2.76453e+112
-2.32397e+112
-1.91487e+112
-1.54465e+112
-1.21826e+112
-9.3811e+111
-7.04232e+111
-5.14535e+111
-3.6524e+111
-2.51475e+111
-1.67899e+111
-1.08529e+111
-6.56722e+110
-3.49601e+110
-8.47007e+109
-3.06821e+110
-1.51835e+110
-5.68928e+109
-2.33728e+109
-9.4921e+108
-6.30307e+108
5.4245e+107
-1.14058e+107
-7.41894e+106
-5.16653e+107
-5.06792e+107
6.55143e+107
-7.72156e+107
6.8439e+107
-1.29414e+107
3.64499e+106
1.13468e+106
1.08669e+106
1.44255e+106
-3.92179e+105
2.30185e+106
7.48303e+105
-5.92914e+104
7.93649e+104
-2.45461e+105
-1.34995e+105
4.78599e+105
1.73846e+104
-2.57889e+105
-6.01051e+105
2.93471e+104
-9.15035e+104
7.33621e+105
6.28908e+105
7.79147e+105
8.27341e+105
6.87102e+105
1.41162e+106
-1.69022e+26
8.54044e+25
3.13566e+25
1.48255e+25
-1.15933e+26
-1.47209e+26
-3.79066e+26
-8.67055e+26
-2.2501e+27
-4.565e+27
-6.54196e+27
-1.11695e+28
-2.13768e+28
-3.78088e+28
-6.44811e+28
-9.0519e+28
-1.13047e+29
-1.58764e+29
-2.86119e+29
5.44296e+28
-1.07204e+29
-4.83291e+29
-1.30298e+30
1.05182e+30
6.72394e+28
-1.09719e+30
-1.56945e+30
-1.27164e+30
-1.8385e+30
-3.27343e+30
-5.62192e+30
-6.74673e+30
-1.61427e+31
-2.34915e+31
-3.13641e+31
-3.85658e+31
-1.34429e+32
-2.75039e+32
2.34978e+31
8.67461e+33
1.75588e+34
3.57905e+34
7.17059e+34
1.44356e+35
2.84447e+35
5.57757e+35
1.05765e+36
1.91059e+36
2.19428e+36
4.62842e+35
7.21249e+35
2.12992e+36
4.52499e+36
8.76904e+36
1.55549e+37
2.87237e+37
5.18616e+37
9.03455e+37
1.51451e+38
2.55144e+38
3.84211e+38
5.32248e+38
5.03389e+38
-2.12367e+38
-4.40194e+38
-1.04876e+39
2.56736e+39
3.56285e+39
4.80498e+39
6.98945e+39
9.18949e+39
1.17083e+40
2.78573e+40
-4.92368e+40
-2.07632e+41
1.14345e+41
4.68803e+41
-4.96369e+40
-1.07829e+42
-1.94074e+42
-6.59294e+42
-1.69214e+43
-4.44994e+43
-6.73024e+43
5.51639e+42
1.18565e+44
-3.77402e+44
-1.04434e+44
2.33093e+44
1.64554e+44
-1.30128e+43
-2.79847e+43
-1.70355e+43
-4.21601e+42
-1.45564e+42
1.8434e+42
1.86547e+42
2.00963e+42
1.42443e+42
5.75132e+42
6.28949e+42
9.53426e+42
-1.48145e+43
3.60055e+43
1.17046e+43
-2.38182e+43
-1.60118e+43
-3.47024e+43
7.40638e+44
3.81333e+45
3.36619e+43
-1.75477e+46
-4.22116e+45
-7.7118e+45
-2.63102e+46
-3.24902e+46
-4.2596e+45
9.77205e+45
3.25616e+46
2.71128e+46
1.97604e+46
6.34147e+48
-7.22294e+44
-1.40753e+46
7.25116e+46
3.3114e+47
1.22452e+47
3.58915e+47
4.23584e+46
5.33085e+47
-8.28483e+47
-6.93029e+48
-1.32333e+49
2.67106e+48
4.77058e+48
-4.43851e+49
-1.06258e+49
-7.84957e+49
8.27487e+50
1.2674e+50
1.48143e+49
4.87566e+49
7.08979e+49
6.50261e+49
7.18026e+49
1.73457e+50
1.83835e+50
2.52362e+49
-5.79673e+50
-2.316e+50
-3.18232e+50
-1.55232e+50
-6.73863e+49
-9.04746e+48
-1.20325e+51
-2.04944e+51
2.00349e+51
6.45241e+52
-2.73551e+52
-7.38295e+52
-1.53334e+53
-4.18678e+53
-6.96651e+53
-1.1644e+54
-3.01511e+54
-6.00423e+54
-1.15249e+55
-1.76608e+55
-2.90442e+55
-4.9463e+55
-3.99906e+55
-1.34155e+56
1.65739e+56
7.87522e+56
-6.92961e+56
-1.04997e+57
-1.78422e+57
-2.20899e+57
-1.30004e+57
1.09671e+57
2.33127e+57
6.39783e+57
1.72637e+58
4.07779e+58
9.63217e+58
2.62461e+59
7.19021e+59
1.65876e+60
3.65389e+60
7.39428e+60
9.48264e+60
-1.71279e+61
-1.25985e+61
6.75443e+60
1.16897e+61
-2.81649e+60
-1.57416e+61
-2.99117e+61
-4.95203e+61
-7.87542e+61
-1.29615e+62
-2.30847e+62
-4.07839e+62
-7.18937e+62
-1.25823e+63
-2.04985e+63
-3.16613e+63
-4.43618e+63
-5.36932e+63
-5.113e+63
-3.28741e+63
2.08047e+62
3.21244e+63
8.06129e+63
1.19988e+65
3.94888e+64
-5.68101e+65
2.17437e+66
-2.02207e+66
-3.53144e+66
-1.14141e+67
-3.59952e+66
2.73604e+67
1.86606e+67
4.79133e+67
1.48343e+68
4.67439e+68
7.76514e+68
6.68305e+68
1.11619e+69
1.37675e+69
-2.40148e+67
-4.17651e+69
-1.92966e+70
-4.02874e+70
-2.30769e+70
-8.0472e+70
1.73933e+72
4.14159e+70
-4.48695e+71
3.17487e+71
-3.48032e+71
-4.38434e+72
-1.92193e+71
-1.23771e+72
-3.90025e+70
8.2543e+70
-1.65258e+71
-1.57724e+71
-9.60884e+70
-1.22856e+71
3.54095e+72
3.57275e+71
-1.11339e+72
1.25755e+72
-1.31308e+72
-3.69301e+72
-7.03527e+72
-1.09171e+73
-1.80684e+73
-4.03747e+73
-2.39262e+73
-4.9939e+73
-1.30255e+74
-1.97776e+74
-3.38239e+74
-5.53848e+74
-9.08033e+74
-1.53179e+75
-2.4659e+75
-3.80038e+75
-6.20265e+75
7.4502e+75
3.53349e+75
1.01797e+76
7.655e+76
1.27492e+77
2.55959e+77
2.82382e+77
8.25743e+76
1.33703e+77
2.28976e+77
4.35514e+77
2.92798e+77
2.24387e+78
1.38916e+78
8.51824e+77
2.5049e+78
4.50608e+78
5.96231e+78
5.07929e+78
3.66403e+78
9.32084e+77
-3.29559e+78
-8.14352e+78
2.41746e+79
-7.1737e+78
-2.55941e+77
7.82838e+80
4.5605e+80
1.02313e+81
1.90082e+81
1.02502e+81
1.13074e+81
-1.06515e+81
-8.88805e+80
1.71985e+81
5.04943e+80
-1.4773e+80
-6.08786e+80
-7.8432e+80
-1.40976e+80
-3.32716e+81
2.99971e+80
9.76039e+80
5.96563e+80
9.93446e+80
1.73788e+81
-3.83373e+80
-1.39343e+81
1.85928e+81
1.97465e+81
1.59326e+82
1.84259e+82
2.80087e+81
-2.39339e+81
-6.09557e+81
-4.33424e+81
-2.62641e+82
1.03042e+81
-3.10761e+83
-1.74757e+83
-2.7881e+83
-3.36694e+83
-2.67775e+83
-1.9041e+83
-4.62656e+83
1.03837e+83
5.75105e+83
-4.46915e+83
-1.20083e+84
-1.96176e+84
-2.67356e+83
1.22988e+84
5.39171e+83
2.72548e+83
-4.09445e+84
1.18917e+85
2.19427e+85
3.44469e+85
8.95172e+84
1.71397e+85
3.31615e+85
7.38411e+85
1.21184e+86
2.15337e+86
4.02602e+86
7.87357e+86
1.48748e+87
2.75212e+87
4.75063e+87
7.97476e+87
9.30905e+87
2.24674e+88
5.08844e+88
1.87883e+88
2.0418e+88
-2.26696e+89
-3.60027e+89
-6.94288e+89
-1.33232e+90
-2.46451e+90
-4.43297e+90
-7.82476e+90
-1.35972e+91
-2.327e+91
-3.91977e+91
-6.4918e+91
-1.05526e+92
-1.67922e+92
-2.60619e+92
-3.92643e+92
-5.71536e+92
-8.02853e+92
-1.09989e+93
-1.52182e+93
-2.2492e+93
-3.58028e+93
-5.62703e+93
-7.37309e+93
-9.56595e+93
-1.28926e+94
-2.27716e+94
-1.06796e+94
-2.82432e+94
4.60555e+94
-4.33271e+94
-5.24328e+94
-6.17059e+94
-7.0698e+94
-7.97853e+94
-8.88429e+94
-9.68875e+94
-1.0273e+95
-1.07437e+95
-1.11894e+95
-1.215e+95
-1.49268e+95
-1.5076e+95
-4.33351e+94
6.13702e+95
7.48026e+95
-4.32581e+95
1.91661e+96
1.39661e+97
2.82896e+97
1.06003e+97
5.45842e+96
7.48265e+96
-3.31617e+96
-3.69387e+97
-4.92191e+97
-1.15544e+98
-2.04979e+98
-3.82389e+98
-6.98487e+98
-1.25549e+99
-2.22468e+99
-3.89175e+99
-6.72178e+99
-1.14602e+100
-1.92834e+100
-3.20171e+100
-5.24463e+100
-8.4745e+100
-1.35055e+101
-2.12248e+101
-3.28886e+101
-5.02408e+101
-7.56514e+101
-1.12273e+102
-1.64204e+102
-2.36652e+102
-3.36077e+102
-4.70307e+102
-6.48618e+102
-8.81809e+102
-1.18233e+103
-1.56464e+103
-2.04609e+103
-2.64895e+103
-3.40442e+103
-4.36039e+103
-5.5954e+103
-7.24279e+103
-9.53134e+103
-1.28511e+104
-1.78581e+104
-2.56379e+104
-3.79614e+104
-5.7681e+104
-8.93393e+104
-1.40088e+105
-2.21061e+105
-3.49386e+105
-5.51122e+105
-8.65469e+105
-1.35074e+106
-2.09272e+106
-3.21617e+106
-4.90053e+106
-7.4008e+106
-1.10752e+107
-1.64209e+107
-2.41193e+107
-3.50928e+107
-5.0574e+107
-7.21878e+107
-1.02048e+108
-1.42863e+108
-1.98058e+108
-2.71892e+108
-3.6958e+108
-4.97398e+108
-6.62766e+108
-8.74283e+108
-1.14171e+109
-1.47585e+109
-1.88838e+109
-2.39148e+109
-2.99741e+109
-3.7179e+109
-4.56338e+109
-5.54214e+109
-6.65933e+109
-7.91587e+109
-9.30738e+109
-1.0823e+110
-1.24444e+110
-1.41445e+110
-1.5886e+110
-1.76201e+110
-1.9283e+110
-2.07921e+110
-2.20377e+110
-2.28719e+110