/*--------------------------------*- C++ -*----------------------------------*\
  =========                 |
  \\      /  F ield         | OpenFOAM: The Open Source CFD Toolbox
   \\    /   O peration     | Website:  https://openfoam.org
    \\  /    A nd           | Version:  9
     \\/     M anipulation  |
\*---------------------------------------------------------------------------*/
FoamFile
{
    format      ascii;
    class       volScalarField;
    location    "1";
    object      f_2;
}
// * * * * * * * * * * * * * * * * * * * * * * * * * * * * * * * * * * * * * //

dimensions      [1 -3 0 0 0 0 0];

internalField   nonuniform List<scalar> 
120000
(
-3.3107e+26
-1.07082e+27
-9.74696e+26
-5.61375e+26
-4.62136e+26
-1.36125e+26
4.67896e+26
-4.15669e+26
-8.69134e+26
-2.00018e+27
-3.12317e+27
-4.27753e+27
1.46051e+27
-4.89046e+27
-7.41301e+27
-9.88417e+27
-1.34074e+28
-1.1999e+28
4.85895e+27
4.85513e+28
1.37166e+29
2.84552e+29
5.23824e+29
4.44536e+29
5.55172e+29
1.25699e+30
1.45415e+30
3.40648e+30
5.68083e+30
9.23597e+30
1.32714e+31
1.65989e+31
3.51788e+31
6.22375e+31
1.02671e+32
1.64306e+32
2.53451e+32
4.38911e+32
8.94678e+32
1.70552e+33
2.90392e+33
4.97171e+33
8.41029e+33
1.42038e+34
2.32927e+34
3.72655e+34
5.76563e+34
8.7916e+34
1.30922e+35
1.86038e+35
2.93373e+35
4.91816e+35
8.3548e+35
1.30197e+36
2.05966e+36
3.16261e+36
4.52616e+36
5.9613e+36
6.72526e+36
6.06026e+36
2.99333e+36
3.34181e+36
3.0909e+37
1.22707e+38
-2.68649e+39
4.27827e+39
4.40728e+40
-6.99414e+39
-2.35659e+39
1.40084e+39
1.45966e+40
-1.02522e+40
-2.1419e+41
-2.8256e+41
-1.14458e+41
1.41883e+41
-3.04256e+41
-1.3456e+42
-3.60411e+42
1.04235e+42
3.95904e+42
1.4633e+43
5.31116e+43
1.97309e+44
7.2468e+44
2.67588e+45
8.70338e+45
-1.7814e+44
-1.90859e+43
6.81837e+42
-3.68316e+43
-3.20714e+43
1.28056e+43
-7.09622e+41
8.96237e+42
1.90915e+43
4.53701e+42
-8.18072e+42
-5.41819e+42
-1.23545e+43
-2.53727e+43
1.49174e+44
-1.31813e+44
-7.02347e+44
-4.10949e+44
-1.08163e+44
-9.89265e+42
7.63692e+43
5.88242e+43
6.25373e+43
1.54821e+44
1.68656e+44
2.61838e+44
3.10842e+44
2.60262e+44
2.88113e+45
-6.21899e+44
2.04108e+45
-7.12016e+45
4.55345e+45
1.79579e+46
-4.22882e+48
6.30132e+46
5.77575e+46
-1.51507e+47
-1.70808e+46
-1.79818e+47
1.75588e+48
6.94436e+46
1.34907e+49
2.37226e+48
3.84138e+48
7.84628e+48
1.86492e+49
4.25134e+49
1.52588e+50
3.20671e+50
3.28324e+50
1.05032e+52
-2.73154e+51
9.61041e+50
4.50558e+50
1.12921e+51
1.66789e+51
2.05193e+51
2.22573e+51
2.07156e+51
1.64101e+51
9.945e+50
-1.73414e+50
-5.99166e+50
-1.61788e+51
3.30892e+50
-1.22307e+50
-2.17528e+51
-3.50264e+52
-8.8635e+51
-3.83114e+52
-3.19167e+52
-9.42968e+52
-2.14874e+53
-5.36422e+53
-1.24504e+54
-4.07337e+54
3.3942e+53
1.14139e+54
-2.64834e+54
-5.45504e+54
-1.6938e+55
-1.09242e+55
1.9876e+56
5.00653e+56
9.69529e+56
1.17342e+57
1.94358e+57
2.95299e+57
4.45869e+57
6.48712e+57
9.41228e+57
1.35088e+58
1.91126e+58
2.7964e+58
4.55075e+58
8.463e+58
1.55132e+59
2.04006e+59
1.40794e+59
3.31461e+59
-2.76721e+59
6.36701e+59
9.98593e+60
-2.78334e+61
-5.9695e+60
-2.94632e+61
-3.56225e+60
-6.59205e+60
6.81061e+60
-8.28814e+60
-9.08539e+60
-7.47326e+60
-1.9672e+61
-5.74022e+61
-5.39148e+61
6.87812e+62
1.68317e+63
-7.39804e+63
-1.10933e+64
-2.43732e+64
-5.98136e+64
-1.53937e+65
-4.05293e+65
-1.07744e+66
-2.86623e+66
-7.63204e+66
-2.01907e+67
-5.78604e+67
1.78244e+67
5.88069e+66
2.02478e+67
5.08204e+67
9.94463e+67
1.64253e+68
6.0623e+68
-3.38536e+66
-1.83459e+67
-7.87496e+67
-1.2544e+68
-3.73382e+68
-9.55814e+68
-2.24419e+69
-5.89995e+69
-1.09343e+70
-1.98133e+70
-3.49937e+70
-7.19133e+70
-2.26653e+71
-5.20826e+71
2.93687e+72
4.81123e+72
1.01205e+72
-6.12795e+70
-6.95873e+70
-7.04549e+71
4.06945e+72
-5.45798e+71
2.58503e+73
-9.0963e+71
-1.35865e+72
-2.7131e+72
-4.17474e+72
-6.71758e+72
-4.66748e+72
2.7656e+72
5.73235e+71
-2.25463e+70
-8.62286e+72
-8.3518e+72
-1.15722e+73
-2.31227e+73
-9.44912e+73
-1.25256e+74
2.06872e+73
-6.90981e+73
2.51061e+74
3.77023e+74
2.10897e+74
1.54275e+74
6.94876e+73
1.20897e+74
3.15628e+74
7.92641e+74
2.17197e+75
4.9176e+75
1.03708e+76
2.67245e+76
4.07948e+76
6.03184e+76
8.81588e+76
5.03081e+77
2.73101e+78
6.50295e+77
1.15424e+78
-9.70745e+76
-2.65359e+77
1.49761e+77
2.83824e+78
-6.16455e+78
-3.12778e+78
-3.37316e+78
-4.98392e+78
-5.44774e+78
-2.87251e+78
7.49017e+77
5.45754e+78
6.16475e+78
-4.02279e+78
2.24341e+79
6.48043e+79
5.56077e+80
1.63278e+81
-9.22065e+81
2.33327e+81
-2.66991e+81
1.96708e+81
-2.73597e+81
-7.99667e+79
-1.82083e+80
2.7977e+80
2.17559e+80
-5.16289e+79
5.32428e+80
1.00897e+81
-2.4024e+80
-3.86231e+81
-3.86153e+81
-3.07994e+81
-6.20697e+80
5.06703e+81
3.70376e+81
2.3616e+81
-1.86925e+81
-3.10076e+81
-2.11275e+82
1.16171e+81
-2.42905e+82
-7.67157e+80
-5.18537e+80
-1.79063e+82
-1.39203e+83
4.46453e+82
-9.59679e+81
2.47205e+82
1.2498e+83
1.97544e+83
1.96125e+83
4.32373e+83
2.29203e+82
-4.8861e+82
-6.5556e+82
-8.71392e+82
1.89127e+84
-1.37441e+84
-2.24084e+84
-7.61353e+84
-3.75781e+84
6.6344e+85
4.21356e+84
1.03078e+85
-1.5859e+85
-5.33984e+85
-4.67383e+84
1.82085e+85
-1.81576e+85
-1.30603e+86
-4.41291e+86
-1.35912e+87
-3.8293e+87
-9.8412e+87
-2.28795e+88
-4.95306e+88
-1.0354e+89
-2.12123e+89
-4.28701e+89
-8.47539e+89
-1.66268e+90
-3.19361e+90
-6.05685e+90
-1.13183e+91
-2.08207e+91
-3.77153e+91
-6.72856e+91
-1.1825e+92
-2.04734e+92
-3.4923e+92
-5.8692e+92
-9.71843e+92
-1.58545e+93
-2.54819e+93
-4.03461e+93
-6.29257e+93
-9.66654e+93
-1.46246e+94
-2.17878e+94
-3.19603e+94
-4.61556e+94
-6.56172e+94
-9.18273e+94
-1.26494e+95
-1.71517e+95
-2.28957e+95
-3.00456e+95
-3.86802e+95
-4.9325e+95
-6.1688e+95
-7.61901e+95
-9.09849e+95
-1.10038e+96
-1.28922e+96
-1.48673e+96
-1.68623e+96
-1.88066e+96
-2.06188e+96
-2.22104e+96
-2.34872e+96
-2.43556e+96
-2.47215e+96
-2.44953e+96
-2.36626e+96
-2.2252e+96
-2.07484e+96
-2.21791e+96
-3.49995e+96
-6.90187e+96
-1.42951e+97
-2.83357e+97
-5.93199e+97
-1.22739e+98
-2.37695e+98
-4.62412e+98
-8.90903e+98
-1.69337e+99
-3.16923e+99
-5.84762e+99
-1.06372e+100
-1.90805e+100
-3.37576e+100
-5.89206e+100
-1.0147e+101
-1.72437e+101
-2.89187e+101
-4.78632e+101
-7.81813e+101
-1.26032e+102
-2.00501e+102
-3.14771e+102
-4.8763e+102
-7.45372e+102
-1.12413e+103
-1.67259e+103
-2.45514e+103
-3.55518e+103
-5.07869e+103
-7.15771e+103
-9.95395e+103
-1.36627e+104
-1.85179e+104
-2.48013e+104
-3.28588e+104
-4.31333e+104
-5.62265e+104
-7.30134e+104
-9.48445e+104
-1.23895e+105
-1.6375e+105
-2.20365e+105
-3.03613e+105
-4.29744e+105
-6.25231e+105
-9.3273e+105
-1.42017e+106
-2.19452e+106
-3.42226e+106
-5.35974e+106
-8.39724e+106
-1.31227e+107
-2.04121e+107
-3.1557e+107
-4.84411e+107
-7.37819e+107
-1.11457e+108
-1.66938e+108
-2.47859e+108
-3.64748e+108
-5.31955e+108
-7.68803e+108
-1.10099e+109
-1.56228e+109
-2.19642e+109
-3.05936e+109
-4.22166e+109
-5.77103e+109
-7.81479e+109
-1.04823e+110
-1.39265e+110
-1.83257e+110
-2.38826e+110
-3.08238e+110
-3.93955e+110
-4.98583e+110
-6.24787e+110
-7.75176e+110
-9.52163e+110
-1.15779e+111
-1.39353e+111
-1.66005e+111
-1.95701e+111
-2.28274e+111
-2.634e+111
-3.00568e+111
-3.39041e+111
-3.77811e+111
-4.15535e+111
-4.50456e+111
-4.80288e+111
-5.02109e+111
-5.12289e+111
-5.06592e+111
-4.80557e+111
-4.30068e+111
-3.51369e+111
-2.39057e+111
-3.85049e+110
1.63275e+110
3.48218e+111
7.12904e+111
1.18668e+112
1.81441e+112
2.60264e+112
3.56916e+112
4.72816e+112
6.0933e+112
7.67508e+112
9.47796e+112
1.14981e+113
1.37216e+113
1.61241e+113
1.86695e+113
2.1311e+113
2.39916e+113
2.66453e+113
2.92001e+113
3.15805e+113
3.37108e+113
3.55194e+113
3.69419e+113
3.79251e+113
3.84299e+113
3.84337e+113
3.79321e+113
3.6939e+113
3.54863e+113
3.36223e+113
3.14094e+113
2.89204e+113
2.62353e+113
2.34366e+113
2.06061e+113
1.78205e+113
1.51481e+113
1.26468e+113
1.03611e+113
8.32228e+112
6.54713e+112
5.03929e+112
3.79054e+112
2.78297e+112
1.99162e+112
1.38703e+112
9.37493e+111
6.11643e+111
3.76572e+111
1.96061e+111
-6.47767e+111
-6.75764e+109
1.56105e+108
5.97955e+109
-3.92394e+110
-1.64562e+109
5.19598e+108
2.06805e+108
1.41448e+108
7.91376e+107
9.38527e+107
4.72769e+108
-7.14512e+107
-5.82543e+107
-3.28926e+107
1.1524e+107
-8.55613e+106
1.47272e+108
3.81242e+107
1.14613e+107
9.55275e+105
-7.50526e+106
-7.74092e+106
-1.40299e+106
2.29672e+107
-1.86204e+106
-4.78657e+106
-1.35323e+107
2.99269e+105
1.45004e+107
1.8069e+106
-2.33368e+107
1.43123e+106
-9.42534e+105
-2.25943e+106
-1.78597e+106
8.69711e+105
-8.28726e+105
-5.59994e+26
-1.81401e+26
-8.44271e+25
-3.30154e+27
1.95766e+26
3.10715e+25
-2.2364e+27
-2.73792e+26
-3.1649e+26
-9.74023e+26
-1.56196e+27
-2.59828e+27
1.03963e+27
-3.71879e+27
-5.63213e+27
-8.66343e+27
-1.49065e+28
-2.43543e+28
-3.58245e+28
-4.23007e+28
-4.05398e+28
-1.28461e+28
-2.54155e+28
-2.74361e+29
-2.35701e+29
-4.2909e+29
-2.10412e+29
-3.28771e+29
-9.62711e+29
-1.26292e+30
-1.55021e+30
-3.09647e+30
-1.05559e+31
-1.50958e+31
-1.34379e+31
-6.04236e+30
-1.11664e+31
-6.6031e+31
-1.17647e+32
-2.0541e+31
1.67726e+32
7.0355e+32
1.88549e+33
4.12187e+33
8.42444e+33
1.37007e+34
1.66059e+34
1.12902e+34
-3.99741e+33
-2.39842e+34
-3.33224e+34
-1.51513e+34
7.35274e+34
2.43336e+35
6.28604e+35
1.35945e+36
2.31848e+36
3.03957e+36
2.3624e+36
-3.01558e+36
-1.93627e+37
-5.72273e+37
-1.32698e+38
-2.5165e+38
-1.04003e+39
-2.02136e+39
2.25334e+40
1.75175e+39
2.12814e+39
-2.40555e+38
3.30982e+40
3.43443e+40
-2.06576e+41
-1.04803e+41
3.74726e+40
-2.02594e+40
7.12673e+40
3.622e+40
-9.71517e+41
-2.34658e+44
-7.27964e+43
2.97411e+43
7.36329e+43
2.23174e+44
7.04877e+44
2.14712e+45
5.18693e+45
-4.94654e+44
9.19762e+42
3.02877e+43
-6.0076e+43
-1.56942e+44
2.80643e+42
2.90295e+42
3.25882e+42
1.30772e+43
7.21716e+43
2.14165e+43
-3.46165e+42
-2.18041e+42
-5.35295e+42
2.63842e+44
1.12288e+44
-2.02761e+44
3.53959e+43
5.24771e+43
-1.8358e+44
2.49593e+43
-4.46157e+44
-2.36728e+43
-2.42149e+44
-1.85211e+43
-7.50628e+43
-2.20712e+44
-4.74839e+44
-4.52277e+45
-8.66399e+45
2.01003e+46
-1.37634e+46
-1.09956e+46
4.02938e+48
-7.63752e+47
4.83176e+45
4.12392e+46
-6.66373e+46
3.97931e+46
1.29113e+47
1.29643e+47
4.35015e+47
4.21961e+48
4.31554e+49
1.51245e+49
5.20931e+48
5.15388e+48
-5.47353e+49
4.37529e+49
8.27883e+49
1.7235e+50
1.75042e+52
-1.62571e+51
1.29726e+51
-5.54437e+50
-8.19449e+50
-1.12146e+51
-1.36998e+51
-1.49097e+51
-1.39379e+51
-1.0533e+51
-3.70307e+50
4.5223e+50
2.95195e+50
1.9253e+51
4.41379e+50
-1.44098e+51
-3.22297e+51
-1.09755e+52
-1.97959e+52
-1.03035e+53
-7.33898e+52
-1.50157e+53
-3.07883e+53
-6.57064e+53
-1.37329e+54
-3.24208e+54
-6.44599e+54
-5.35166e+54
-1.16065e+55
-2.39267e+55
-4.28228e+55
-9.43998e+55
-2.87875e+56
-9.39769e+55
5.69164e+55
-4.6154e+55
1.48927e+56
2.74103e+56
7.40399e+56
1.55322e+57
3.77081e+57
7.1691e+57
1.29938e+58
2.21646e+58
3.69719e+58
5.78836e+58
6.14024e+58
-1.02421e+59
-1.73062e+60
-1.99542e+61
-1.49317e+60
-3.163e+60
-1.50282e+62
7.36315e+60
3.5043e+61
3.94235e+60
-2.94434e+60
-3.35996e+60
1.1405e+61
-9.87086e+60
-1.0145e+61
-4.00516e+59
1.66541e+61
1.70594e+61
-1.24437e+61
-1.20016e+62
2.50058e+63
-3.6744e+62
2.31573e+62
8.08717e+62
2.1111e+63
5.24661e+63
1.2781e+64
3.27369e+64
8.29767e+64
1.7769e+65
5.15098e+65
1.60828e+66
-2.50839e+66
6.40871e+65
-1.74718e+65
-2.87298e+65
-8.33214e+65
-2.33483e+67
-6.08017e+67
-8.34407e+66
-5.74318e+63
5.20723e+67
-1.25555e+66
-8.8742e+67
-2.80881e+68
-6.49289e+68
-1.70897e+69
-4.01702e+69
-7.41193e+69
-1.13038e+70
-1.02833e+70
-1.93177e+70
-5.40257e+70
1.48505e+72
-1.38247e+71
1.47561e+72
3.37479e+71
1.12906e+72
6.00518e+71
9.65733e+71
4.15392e+71
8.79031e+71
-1.18023e+71
-1.01416e+72
-3.08004e+71
6.53947e+71
-1.9501e+70
3.31765e+72
8.66726e+71
-1.06225e+72
4.85108e+71
8.03644e+71
3.6195e+72
6.99214e+72
1.35862e+73
6.88067e+72
-5.85639e+72
-3.54152e+73
-2.53704e+79
8.38103e+73
-1.03113e+74
-2.61012e+74
-1.10512e+74
-9.81659e+73
2.96361e+73
-1.0655e+75
-5.79382e+74
-3.86753e+74
-3.8063e+74
-1.01937e+75
-3.74148e+74
-8.02032e+75
-2.00317e+76
-7.50626e+76
-8.68135e+76
2.07563e+77
1.22971e+77
-4.25117e+78
-1.19248e+77
2.67299e+79
3.26044e+77
1.746e+78
-2.03299e+78
-7.26582e+77
-8.08699e+77
-1.22848e+78
-1.86532e+78
-2.18449e+78
-4.58188e+78
-1.08386e+79
-2.10202e+79
-3.2624e+79
9.94734e+77
-1.50068e+79
4.87811e+79
-6.31192e+79
-4.13493e+81
5.63048e+81
3.81696e+80
2.30694e+80
-7.70323e+80
2.84424e+80
-2.62241e+79
2.28667e+81
7.14449e+80
-1.00207e+81
3.21741e+80
1.66587e+81
4.71718e+80
-2.10718e+81
-2.60558e+81
-2.2205e+81
-1.32911e+81
-1.4624e+81
3.51254e+81
-1.00144e+82
-1.08522e+82
6.8434e+82
1.24036e+82
-1.6388e+82
-1.55434e+81
-1.36238e+81
-3.61731e+81
9.78766e+81
-9.64636e+82
-2.35473e+81
5.37718e+82
7.71283e+81
3.49808e+82
7.13504e+82
6.1969e+82
1.31062e+83
2.35907e+82
-2.52643e+82
9.78274e+82
1.91339e+83
-6.98519e+84
7.40202e+83
5.09488e+84
2.80446e+84
-3.52709e+84
-3.94155e+85
1.16932e+84
2.81527e+84
-7.15479e+84
2.88083e+85
7.6671e+84
2.81693e+85
3.22684e+85
2.80771e+85
4.2919e+85
8.65501e+85
2.65532e+86
9.5824e+86
3.36291e+87
1.03736e+88
2.80526e+88
6.85517e+88
1.58113e+89
3.39094e+89
7.02221e+89
1.41817e+90
2.7883e+90
5.36061e+90
1.01061e+91
1.87025e+91
3.40076e+91
6.07967e+91
1.06909e+92
1.84976e+92
3.14975e+92
5.2791e+92
8.70968e+92
1.41455e+93
2.2616e+93
3.55947e+93
5.51455e+93
8.40949e+93
1.26224e+94
1.86466e+94
2.71091e+94
3.8785e+94
5.46027e+94
7.5637e+94
1.03085e+95
1.38227e+95
1.82294e+95
2.36443e+95
3.01729e+95
3.78456e+95
4.68083e+95
5.69211e+95
6.79545e+95
7.98475e+95
9.22771e+95
1.04865e+96
1.17163e+96
1.28663e+96
1.38808e+96
1.47014e+96
1.52707e+96
1.5537e+96
1.5476e+96
1.51705e+96
1.49889e+96
1.5869e+96
1.79569e+96
1.9145e+96
2.32868e+96
3.82161e+96
8.51801e+96
1.92312e+97
4.03109e+97
9.28718e+97
1.95487e+98
3.94689e+98
7.75271e+98
1.492e+99
2.81709e+99
5.2261e+99
9.54532e+99
1.71628e+100
3.03998e+100
5.30658e+100
9.13152e+100
1.54933e+101
2.59227e+101
4.27753e+101
6.96156e+101
1.11745e+102
1.76914e+102
2.76244e+102
4.25411e+102
6.46084e+102
9.67637e+102
1.42909e+103
2.08124e+103
2.98879e+103
4.23251e+103
5.91122e+103
8.14373e+103
1.10712e+104
1.48607e+104
1.97128e+104
2.58766e+104
3.36801e+104
4.3588e+104
5.63077e+104
7.29752e+104
9.54725e+104
1.26955e+105
1.72709e+105
2.41521e+105
3.47843e+105
5.15158e+105
7.81171e+105
1.20568e+106
1.88243e+106
2.9566e+106
4.65058e+106
7.30121e+106
1.14131e+107
1.7734e+107
2.73598e+107
4.18794e+107
6.35701e+107
9.56601e+107
1.42673e+108
2.10873e+108
3.08833e+108
4.48144e+108
6.44281e+108
9.17643e+108
1.29477e+109
1.80971e+109
2.50557e+109
3.43609e+109
4.66728e+109
6.27888e+109
8.36567e+109
1.10382e+110
1.44229e+110
1.86612e+110
2.39077e+110
3.03265e+110
3.80861e+110
4.73525e+110
5.82802e+110
7.10016e+110
8.56144e+110
1.02168e+111
1.20647e+111
1.40958e+111
1.6291e+111
1.86198e+111
2.10381e+111
2.34854e+111
2.58813e+111
2.81198e+111
3.00623e+111
3.15285e+111
3.22895e+111
3.20707e+111
3.05786e+111
2.7551e+111
2.27687e+111
1.57579e+111
2.87872e+110
-1.71701e+111
-1.97431e+111
-4.14923e+111
-7.10233e+111
-1.09129e+112
-1.57576e+112
-2.17046e+112
-2.8849e+112
-3.72832e+112
-4.70811e+112
-5.82762e+112
-7.08478e+112
-8.47125e+112
-9.9718e+112
-1.15641e+113
-1.32188e+113
-1.49001e+113
-1.65664e+113
-1.81722e+113
-1.96698e+113
-2.10112e+113
-2.21509e+113
-2.30482e+113
-2.3669e+113
-2.39887e+113
-2.39926e+113
-2.3678e+113
-2.30536e+113
-2.21396e+113
-2.09666e+113
-1.95742e+113
-1.80086e+113
-1.63203e+113
-1.45618e+113
-1.27847e+113
-1.10374e+113
-9.36315e+112
-7.79824e+112
-6.37078e+112
-5.10007e+112
-3.99649e+112
-3.06192e+112
-2.29073e+112
-1.67118e+112
-1.18714e+112
-8.198e+111
-5.49202e+111
-3.55819e+111
-2.22487e+111
-1.41252e+111
-3.90145e+111
-3.29807e+110
1.86054e+110
-3.53528e+107
-1.74948e+110
-2.32435e+109
6.77257e+108
2.87088e+108
1.29466e+108
2.15582e+107
-9.07958e+106
6.20251e+107
-3.4093e+107
1.37097e+106
5.81788e+106
3.16702e+106
-5.16719e+106
1.37571e+107
-4.3643e+106
1.32715e+107
4.98293e+106
-2.58095e+106
1.10469e+106
-2.30683e+106
2.34935e+107
-9.60693e+105
-2.44944e+106
-5.8527e+106
-1.13717e+107
-1.53393e+106
-3.70035e+105
-9.55224e+106
1.52609e+106
2.27915e+106
2.45668e+106
2.16789e+106
6.81878e+105
-2.1285e+106
-3.4146e+26
-9.74017e+24
-1.69646e+26
-1.32379e+27
1.27035e+26
3.06553e+25
-8.28059e+26
-1.83016e+26
-3.44043e+26
-6.50122e+26
-1.08905e+27
-2.15854e+27
-2.8541e+27
-5.12504e+27
-7.94783e+27
-1.17598e+28
-1.87873e+28
-3.21007e+28
-4.43715e+28
-6.04626e+28
-7.39459e+28
1.92392e+28
-3.31995e+28
-8.21995e+29
-1.22998e+30
-1.25763e+30
-6.4254e+29
-9.81164e+29
-1.72586e+30
-3.02976e+30
-4.94934e+30
-1.68955e+30
-1.66638e+31
-2.74835e+31
-3.97291e+31
-4.58617e+31
-5.19375e+31
-1.05484e+32
-1.93416e+32
-1.85946e+32
-5.38254e+31
5.548e+32
2.12501e+33
5.26489e+33
1.23744e+34
2.41273e+34
3.61618e+34
2.65669e+34
-2.04553e+34
-6.22328e+34
-8.79867e+34
-1.21887e+35
-1.00848e+35
5.46755e+34
5.05608e+35
1.73723e+36
4.23191e+36
7.82624e+36
1.25136e+37
1.42812e+37
1.46645e+37
1.18173e+37
1.74165e+37
3.06431e+37
-3.34053e+38
-4.36765e+39
-7.6779e+40
-1.2235e+39
-5.08493e+39
2.86811e+38
9.57643e+39
8.65262e+39
-5.95882e+40
5.8117e+38
3.14645e+40
-7.79403e+40
4.84262e+41
6.81047e+40
-2.31616e+41
-8.80201e+43
-2.48084e+43
2.41613e+43
6.82896e+43
1.90811e+44
4.83804e+44
-2.78672e+45
1.91897e+45
-7.06811e+44
1.22312e+44
2.16601e+44
7.20609e+42
-7.35182e+43
-3.39409e+42
8.58433e+41
6.93421e+41
2.39326e+42
2.53248e+43
8.64258e+42
-6.99332e+42
-3.39229e+42
-9.22686e+42
1.16202e+43
1.36922e+44
-3.00569e+44
5.11091e+42
2.22379e+43
-7.05202e+43
-6.34557e+43
-1.48346e+44
-1.91032e+44
8.56218e+44
-1.3629e+46
2.79327e+44
1.07632e+45
1.09691e+46
3.41979e+46
7.37565e+46
5.71337e+45
-8.49546e+45
-1.03734e+46
1.59022e+48
-1.48933e+48
1.98203e+47
-2.90935e+46
-1.18153e+47
-5.70793e+46
-7.94469e+46
-3.77155e+46
3.61759e+47
4.39193e+48
6.54897e+49
8.54444e+48
6.18832e+48
3.03217e+48
-1.13316e+49
-2.80207e+49
2.32057e+49
-2.93473e+50
8.85207e+51
-1.17078e+50
6.14831e+50
-3.49818e+50
-5.33936e+50
-7.42692e+50
-9.23252e+50
-1.01402e+51
-9.61109e+50
-7.73072e+50
-4.95236e+50
1.9988e+50
4.25196e+49
1.59881e+51
7.04e+48
-5.05122e+50
-1.21125e+51
-4.51668e+51
-1.62807e+52
1.2546e+53
-1.38455e+52
-3.39738e+52
-3.15252e+52
-8.80964e+52
-2.1953e+53
-5.16358e+53
-5.28441e+53
1.68147e+53
2.90661e+54
8.1861e+54
-2.59198e+55
1.54983e+55
-9.61814e+55
-9.35261e+55
-3.57296e+55
9.67194e+56
3.33736e+56
9.24336e+56
1.87263e+58
1.57749e+58
1.92308e+57
4.20139e+57
8.25992e+57
1.50877e+58
2.51095e+58
4.04162e+58
5.7008e+58
-6.23506e+57
-7.52852e+59
-1.21521e+61
-5.84517e+60
-1.3039e+61
-1.15006e+62
1.58425e+61
6.37767e+61
2.00399e+61
3.88526e+60
-1.56875e+60
4.50327e+59
-1.68869e+61
-2.36808e+61
-2.56482e+61
-2.50902e+61
-4.44236e+61
-1.04488e+62
-1.9269e+62
4.73199e+62
-6.42314e+62
-6.01483e+62
-5.33799e+62
-1.14584e+62
1.14069e+63
4.19526e+63
1.18432e+64
2.99914e+64
6.45461e+64
2.94851e+65
7.0589e+65
-6.80846e+65
-1.31335e+66
-1.59715e+66
-4.17076e+66
-1.01027e+67
-3.96144e+67
-1.21783e+68
2.00456e+67
-9.87095e+66
2.0228e+67
1.53463e+66
-1.15378e+69
-3.04583e+68
5.54158e+68
-3.35577e+68
-1.58146e+69
-4.06829e+69
-7.2926e+69
-1.25382e+69
-5.40522e+70
-4.68232e+69
3.44574e+71
8.07409e+71
3.6679e+72
7.89131e+71
1.51656e+72
8.86763e+71
3.47267e+70
1.61249e+71
4.09091e+71
3.47153e+70
-2.21746e+71
2.27278e+71
1.00771e+72
8.69351e+71
-8.1741e+73
1.1105e+72
-9.16337e+71
4.44039e+72
1.16201e+72
1.28186e+72
1.91183e+72
4.60458e+72
7.83426e+72
5.26571e+72
-2.73543e+72
-8.70486e+78
-7.3546e+73
-1.1854e+74
-2.08457e+74
-1.87432e+74
-2.16016e+74
-2.25764e+74
-6.33291e+74
-4.9537e+74
-1.79584e+74
-1.71903e+72
-6.81623e+74
1.83174e+75
-7.65272e+74
-1.41316e+76
-4.49003e+76
-7.01132e+76
-1.00385e+77
3.73333e+77
-1.67097e+78
-7.29174e+76
1.68533e+78
7.31896e+75
1.03148e+78
-3.83434e+77
-2.68589e+77
-3.3498e+77
1.17472e+77
2.55663e+77
2.73226e+77
-7.42626e+77
-3.9112e+78
-1.04471e+79
-2.33798e+79
-2.5626e+79
-8.94217e+79
1.57671e+79
1.01144e+81
-2.71702e+81
2.86758e+81
3.07664e+80
6.2606e+80
-3.75229e+81
-2.83247e+81
2.38284e+80
1.90586e+81
-3.06876e+81
-7.12315e+80
-9.48115e+79
-9.5677e+79
5.00735e+80
-1.28807e+81
-1.61308e+81
-1.34825e+81
-1.05745e+81
-1.70136e+81
1.67196e+79
-5.03216e+81
-1.16335e+82
2.04968e+82
1.58088e+82
-1.1887e+82
4.72976e+81
2.84751e+81
8.59942e+80
3.15223e+82
-1.09454e+81
1.06718e+82
-7.21677e+83
2.52428e+82
-1.50032e+82
4.57754e+82
7.24981e+82
9.26791e+82
-1.10428e+83
-2.38668e+82
2.44395e+83
-1.88803e+83
-2.03966e+85
1.20176e+84
-2.71452e+83
-1.92208e+84
-3.92459e+84
-8.23039e+85
-3.49977e+83
2.73389e+84
5.50924e+84
1.22627e+85
-4.12677e+84
1.47511e+85
2.12008e+85
1.97044e+85
1.3579e+85
1.95351e+85
9.69716e+85
4.58476e+86
1.86889e+87
2.66202e+87
1.88008e+88
4.23588e+88
9.18095e+88
2.0028e+89
4.29859e+89
8.72133e+89
1.72346e+90
3.32497e+90
6.27031e+90
1.15995e+91
2.11138e+91
3.78332e+91
6.67043e+91
1.1572e+92
1.97561e+92
3.31957e+92
5.49017e+92
8.93777e+92
1.43224e+93
2.25911e+93
3.50735e+93
5.35953e+93
8.06051e+93
1.1931e+94
1.73803e+94
2.49161e+94
3.51455e+94
4.87563e+94
6.64816e+94
8.91424e+94
1.17495e+95
1.51646e+95
1.93083e+95
2.46166e+95
3.03748e+95
3.62523e+95
4.41963e+95
5.19481e+95
6.00724e+95
6.83099e+95
7.63651e+95
8.38994e+95
9.05551e+95
9.59816e+95
9.97888e+95
1.01663e+96
1.01422e+96
9.94116e+95
9.73815e+95
9.72326e+95
1.11126e+96
1.1417e+96
1.47098e+96
2.07222e+96
2.28744e+96
1.55314e+97
2.47977e+97
5.53205e+97
1.18011e+98
2.3241e+98
4.70071e+98
9.13954e+98
1.73006e+99
3.24167e+99
5.91864e+99
1.06661e+100
1.89389e+100
3.31389e+100
5.71574e+100
9.71963e+100
1.6298e+101
2.69506e+101
4.39516e+101
7.06913e+101
1.12135e+102
1.75423e+102
2.70639e+102
4.11748e+102
6.17713e+102
9.13773e+102
1.33282e+103
1.91682e+103
2.71822e+103
3.80122e+103
5.24302e+103
7.1352e+103
9.586e+103
1.27247e+104
1.6711e+104
2.17534e+104
2.81456e+104
3.63319e+104
4.70244e+104
6.14019e+104
8.14424e+104
1.10464e+105
1.53993e+105
2.21134e+105
3.26713e+105
4.94574e+105
7.62598e+105
1.19025e+106
1.86979e+106
2.94268e+106
4.62353e+106
7.23422e+106
1.12524e+107
1.73788e+107
2.66309e+107
4.04685e+107
6.09636e+107
9.10228e+107
1.34676e+108
1.97444e+108
2.868e+108
4.1273e+108
5.88415e+108
8.31017e+108
1.16258e+109
1.61104e+109
2.21126e+109
3.00608e+109
4.04735e+109
5.39671e+109
7.12615e+109
9.31807e+109
1.20648e+110
1.54672e+110
1.96327e+110
2.46715e+110
3.06926e+110
3.77973e+110
4.6073e+110
5.55844e+110
6.63647e+110
7.84059e+110
9.16479e+110
1.05968e+111
1.2117e+111
1.36969e+111
1.52973e+111
1.68666e+111
1.83363e+111
1.96168e+111
2.05909e+111
2.11083e+111
2.09859e+111
2.00255e+111
1.80591e+111
1.49936e+111
1.07046e+111
3.95261e+110
-6.38627e+110
-1.25911e+111
-2.64794e+111
-4.54579e+111
-7.01491e+111
-1.01611e+112
-1.40267e+112
-1.86714e+112
-2.41571e+112
-3.0534e+112
-3.78254e+112
-4.60186e+112
-5.50596e+112
-6.48495e+112
-7.52426e+112
-8.60474e+112
-9.70295e+112
-1.07918e+113
-1.18414e+113
-1.28205e+113
-1.36977e+113
-1.44432e+113
-1.50302e+113
-1.54365e+113
-1.56458e+113
-1.56485e+113
-1.54428e+113
-1.50345e+113
-1.44367e+113
-1.36696e+113
-1.2759e+113
-1.17353e+113
-1.06316e+113
-9.48224e+112
-8.32102e+112
-7.1797e+112
-6.08655e+112
-5.0653e+112
-4.13431e+112
-3.30616e+112
-2.58753e+112
-1.97956e+112
-1.47846e+112
-1.07644e+112
-7.62821e+111
-5.25256e+111
-3.5118e+111
-2.24018e+111
-1.3509e+111
-7.88227e+110
-1.03836e+111
-9.11572e+109
1.29337e+110
1.53125e+109
-6.21939e+109
-1.11385e+109
2.30016e+108
1.38796e+108
7.25936e+107
3.50918e+106
2.69234e+107
2.17828e+107
-2.90706e+107
1.13466e+107
3.49283e+107
1.69076e+106
-2.13075e+105
7.77756e+106
-1.67777e+106
8.44175e+106
4.17689e+106
-9.85026e+105
3.53411e+105
-8.81636e+105
1.14808e+107
2.48028e+104
-5.70363e+105
-1.40092e+105
3.33273e+106
-3.00142e+105
-3.79294e+105
-4.69982e+106
1.40515e+106
1.79177e+106
1.83922e+106
1.80945e+106
1.31917e+106
1.22992e+106
-2.00941e+26
8.80979e+24
-1.20917e+26
-6.40074e+26
1.00207e+25
-3.8024e+25
-3.65994e+26
-1.8935e+26
-3.87586e+26
-6.51732e+26
-7.87046e+26
-2.38811e+27
-4.0026e+27
-7.10361e+27
-1.24078e+28
-1.65945e+28
-2.67678e+28
-4.36327e+28
-8.55811e+28
1.86966e+29
1.49307e+29
-3.49383e+29
-1.04666e+30
-2.67549e+29
-4.92957e+28
-6.44149e+29
-6.66596e+29
-7.76496e+29
-1.12324e+30
-2.05503e+30
-3.53944e+30
-8.3801e+28
-1.21424e+31
-2.0053e+31
-2.41333e+31
-1.80406e+31
-3.72139e+31
-3.79419e+31
-8.89774e+31
1.61243e+33
3.39698e+33
7.34821e+33
1.55985e+34
3.16918e+34
6.5371e+34
1.24296e+35
2.34067e+35
4.22646e+35
5.38945e+35
1.49233e+35
1.43159e+35
3.95061e+35
7.41318e+35
1.90655e+36
3.5273e+36
7.14536e+36
1.43822e+37
2.68823e+37
4.91211e+37
9.42554e+37
1.38415e+38
1.94208e+38
1.88176e+38
9.71687e+37
8.63303e+37
-2.62786e+39
-2.533e+40
8.04636e+38
-4.68068e+37
2.06281e+39
4.91908e+39
1.55143e+39
-5.08722e+40
1.79959e+40
-3.55597e+41
1.37954e+41
2.63892e+41
-1.63972e+41
6.65976e+41
-3.36036e+43
-5.6095e+42
1.97203e+43
5.64242e+43
1.26898e+44
2.40773e+44
-1.06383e+45
7.46239e+44
-2.46562e+44
5.17564e+44
-3.62081e+44
7.74746e+43
-1.71049e+43
-2.11183e+42
3.7347e+42
2.15151e+42
-2.99298e+42
6.32498e+42
2.13509e+41
-8.64824e+42
-1.28231e+43
-1.67692e+43
-2.81233e+43
8.58936e+43
-2.15914e+44
-1.88012e+43
6.90183e+42
-4.97138e+42
1.2595e+44
3.16692e+43
-6.78568e+45
5.02787e+43
6.97269e+46
6.86737e+45
8.68245e+45
5.02922e+46
7.66863e+46
1.79934e+45
3.26951e+45
9.53339e+44
-1.39314e+45
5.53742e+47
-2.938e+48
7.27468e+46
-6.37518e+45
-5.16569e+46
1.37039e+47
4.57226e+46
-3.7803e+46
9.30473e+46
1.81148e+48
3.09916e+49
1.10853e+49
2.78778e+51
8.36188e+48
1.12899e+49
-7.43319e+49
3.84192e+49
-5.81386e+49
6.13583e+51
-1.43076e+50
7.76633e+49
-2.7466e+50
-3.90767e+50
-4.9771e+50
-6.18037e+50
-9.97191e+50
-8.23284e+50
-4.05885e+50
-2.79747e+49
1.80226e+50
5.29675e+51
5.64114e+50
-4.54147e+49
-1.83646e+50
-1.03128e+51
-2.37334e+51
-8.26021e+51
2.65128e+53
5.09658e+51
-7.02194e+51
2.18576e+52
2.71909e+52
-1.7205e+53
3.85796e+52
1.87447e+53
2.22061e+54
8.15221e+54
1.83088e+55
1.37931e+54
3.28646e+55
1.29548e+55
-1.27539e+56
-3.41992e+56
-2.17707e+55
5.46131e+56
1.14668e+57
9.52757e+57
1.02095e+58
3.13002e+56
2.52956e+57
3.45197e+57
3.27416e+57
1.25577e+57
-1.35049e+58
-3.57561e+58
-1.73981e+59
-8.57298e+59
-6.55625e+60
-7.23563e+60
-1.39898e+61
-7.26513e+61
1.39664e+61
5.22053e+61
2.20653e+61
6.07634e+60
-1.14878e+60
-4.94089e+60
-1.58471e+61
-2.56557e+61
-3.80669e+61
-5.88382e+61
-1.07746e+62
-1.98139e+62
-3.52907e+62
-3.39927e+62
-1.00088e+63
-1.35055e+63
-1.72411e+63
-1.91036e+63
-1.54921e+63
-1.425e+62
3.43493e+63
1.09228e+64
2.23213e+64
1.98107e+65
2.78366e+65
-2.30621e+65
-1.23053e+66
2.9405e+66
-2.19128e+66
-5.6698e+66
-1.51093e+67
-4.62404e+67
2.23084e+66
1.88428e+67
4.16948e+67
3.6102e+67
-1.55239e+68
-8.10737e+67
2.12571e+68
-1.08837e+68
-5.4429e+68
-6.76257e+67
-1.00304e+70
-9.02805e+69
-7.55052e+70
-4.31863e+70
-2.32439e+72
-1.06889e+70
6.05785e+71
-3.45105e+72
1.52601e+72
4.02343e+72
-1.03181e+71
4.03065e+71
1.32892e+71
1.26677e+69
-9.24392e+70
5.66904e+70
3.17558e+71
2.94406e+71
-6.05974e+73
4.90954e+71
-6.97723e+71
4.49249e+72
1.31464e+68
-1.16512e+72
-2.54907e+72
-3.77093e+72
-6.66592e+72
-1.77625e+73
-5.83941e+72
-2.99222e+78
-8.08271e+73
-1.20856e+74
-2.11469e+74
-2.75601e+74
-3.64439e+74
-4.50542e+74
-5.7756e+74
-8.86881e+73
2.31123e+75
-2.75615e+75
1.03386e+75
1.4358e+76
1.73948e+76
2.11693e+76
4.3324e+76
7.6233e+76
2.58116e+76
1.4165e+77
-5.13401e+77
8.94702e+76
5.37284e+77
2.2271e+77
8.30041e+77
1.75105e+77
7.87761e+77
1.12167e+78
1.5207e+78
1.15189e+78
7.78905e+77
1.90932e+77
-8.92366e+77
-3.88941e+78
-1.41723e+79
-1.19042e+79
4.66741e+80
-1.27309e+81
7.02488e+80
-1.93243e+81
6.18476e+80
3.84408e+80
4.54167e+80
-1.3201e+82
-2.31388e+81
1.67082e+81
9.34161e+80
-6.81071e+81
-4.99245e+80
-1.10816e+80
-2.00997e+80
1.33101e+81
-9.68699e+80
-1.38553e+81
-1.08625e+81
-9.97023e+80
-1.49524e+81
-4.0342e+80
-4.549e+81
-1.47902e+82
9.02797e+80
-2.11662e+82
-2.85526e+82
2.37613e+81
-1.82332e+81
2.42369e+80
1.3531e+82
-2.7561e+81
1.68941e+82
-4.26382e+83
-2.54559e+82
-6.33917e+82
2.03993e+81
7.59942e+82
1.31827e+83
2.24035e+83
-5.20515e+82
-5.59297e+82
1.50665e+83
-9.148e+84
8.65626e+82
-2.78929e+83
-7.08926e+84
-3.14902e+84
-6.18258e+85
-1.60823e+84
4.10444e+84
5.8547e+84
6.15708e+84
-6.92326e+84
4.28221e+84
4.21803e+84
8.13199e+84
-1.10456e+85
-3.90479e+85
-7.00697e+85
-3.08381e+85
3.75525e+86
6.77486e+86
7.13584e+87
1.756e+88
3.21023e+88
7.90556e+88
1.81946e+89
2.94143e+89
2.86894e+89
1.53641e+90
3.06531e+90
6.35157e+90
1.23909e+91
2.28936e+91
4.10439e+91
7.20521e+91
1.2421e+92
2.10475e+92
3.50698e+92
5.74636e+92
9.25796e+92
1.466e+93
2.28026e+93
3.48144e+93
5.21481e+93
7.66645e+93
1.10863e+94
1.58468e+94
2.25497e+94
3.20349e+94
4.487e+94
5.98208e+94
7.85296e+94
2.42766e+95
1.48429e+95
1.52452e+95
2.05099e+95
2.37627e+95
3.08234e+95
3.64601e+95
4.23491e+95
4.82645e+95
5.41026e+95
5.96484e+95
6.45444e+95
6.84651e+95
7.13257e+95
7.31959e+95
7.49991e+95
8.29946e+95
1.16018e+95
7.12791e+95
5.7114e+95
5.14084e+95
8.0028e+94
3.55069e+96
-6.29342e+96
-1.25586e+97
1.06364e+97
1.96614e+97
5.52542e+97
1.65935e+98
2.91514e+98
4.89797e+98
1.00419e+99
1.83271e+99
3.49323e+99
6.42794e+99
1.1576e+100
2.0482e+100
3.56636e+100
6.11556e+100
1.03322e+101
1.72039e+101
2.82371e+101
4.56906e+101
7.28917e+101
1.14653e+102
1.77808e+102
2.71874e+102
4.09846e+102
6.09107e+102
8.92431e+102
1.28901e+103
1.83549e+103
2.57684e+103
3.56727e+103
4.87103e+103
6.56368e+103
8.7346e+103
1.14923e+104
1.49755e+104
1.93751e+104
2.4975e+104
3.22247e+104
4.1866e+104
5.51433e+104
7.41514e+104
1.02395e+105
1.45684e+105
2.13533e+105
3.21338e+105
4.93698e+105
7.69411e+105
1.20893e+106
1.90533e+106
3.00035e+106
4.70733e+106
7.34401e+106
1.13783e+107
1.74916e+107
2.66654e+107
4.02971e+107
6.03538e+107
8.95717e+107
1.31712e+108
1.91881e+108
2.76928e+108
3.95918e+108
5.60693e+108
7.86517e+108
1.09278e+109
1.50378e+109
2.04944e+109
2.76612e+109
3.69717e+109
4.89338e+109
6.41309e+109
8.32187e+109
1.06917e+110
1.35994e+110
1.71243e+110
2.1345e+110
2.63356e+110
3.21603e+110
3.88676e+110
4.64842e+110
5.50076e+110
6.43988e+110
7.45748e+110
8.54002e+110
9.66784e+110
1.0814e+111
1.19427e+111
1.30071e+111
1.39456e+111
1.46775e+111
1.50974e+111
1.50735e+111
1.44547e+111
1.30972e+111
1.08942e+111
7.75739e+110
3.29899e+110
-1.53747e+110
-2.44476e+110
-1.80068e+111
-3.03822e+111
-4.75937e+111
-6.95739e+111
-9.66229e+111
-1.29201e+112
-1.67785e+112
-2.12757e+112
-2.64303e+112