/*--------------------------------*- C++ -*----------------------------------*\
  =========                 |
  \\      /  F ield         | OpenFOAM: The Open Source CFD Toolbox
   \\    /   O peration     | Website:  https://openfoam.org
    \\  /    A nd           | Version:  9
     \\/     M anipulation  |
\*---------------------------------------------------------------------------*/
FoamFile
{
    format      ascii;
    class       volScalarField;
    location    "1";
    object      f_4;
}
// * * * * * * * * * * * * * * * * * * * * * * * * * * * * * * * * * * * * * //

dimensions      [1 -3 0 0 0 0 0];

internalField   nonuniform List<scalar> 
120000
(
7.36029e+25
-2.59714e+27
-5.39623e+27
-8.86064e+27
-2.08097e+27
8.98093e+24
-1.662e+27
5.71685e+27
3.1867e+27
8.79237e+27
1.25227e+28
1.73123e+28
5.77377e+28
3.06762e+28
2.29625e+28
4.2253e+28
6.46512e+28
1.13321e+29
1.72263e+29
2.44457e+29
2.99081e+29
1.57858e+29
-4.9329e+29
-2.67709e+30
-4.16164e+30
-4.94739e+30
-6.25818e+30
-8.37654e+30
-1.62522e+31
-2.76423e+31
-4.42077e+31
-6.20466e+31
-9.57462e+31
-1.87645e+32
-3.38338e+32
-5.4864e+32
-8.3794e+32
-1.30673e+33
-2.14203e+33
-4.07475e+33
-7.20347e+33
-1.27923e+34
-2.1653e+34
-3.56103e+34
-5.26276e+34
-9.35248e+34
-1.48162e+35
-2.29863e+35
-3.71638e+35
-6.5467e+35
-1.06496e+36
-1.68571e+36
-2.66547e+36
-4.42618e+36
-7.01439e+36
-1.09162e+37
-1.67776e+37
-2.51954e+37
-3.67854e+37
-4.83603e+37
-6.10655e+37
-7.20123e+37
-1.09034e+38
-2.57315e+38
1.88004e+39
8.52121e+40
1.35867e+41
8.96968e+37
-2.16475e+40
-7.74008e+40
-2.54811e+41
-7.75572e+41
-1.00992e+42
6.51941e+40
1.68924e+41
6.9014e+41
-3.59812e+41
2.30435e+41
1.06287e+42
9.55813e+41
3.30552e+41
-8.17597e+42
-2.71172e+43
-8.49838e+43
-2.6366e+44
-9.21256e+44
-2.91137e+45
2.18039e+44
1.9091e+44
-4.52441e+42
-1.24155e+45
1.4513e+43
-1.05307e+43
1.54873e+43
5.35409e+43
-1.17709e+43
-6.29704e+43
-4.01156e+42
5.19042e+42
3.85743e+43
-3.51456e+43
1.27914e+43
-1.22855e+45
1.06591e+45
2.52133e+44
2.87767e+44
9.5686e+43
-1.81418e+44
1.70048e+44
-3.31121e+44
-3.8601e+44
-8.20845e+43
-4.13117e+44
-9.08712e+44
-7.36981e+44
9.48957e+45
-3.9255e+45
-5.20401e+45
-4.50064e+47
-1.00588e+47
1.12715e+46
-3.70147e+49
-1.53542e+47
-1.33516e+47
-1.19794e+48
-3.22182e+47
-4.90138e+47
-2.61374e+48
9.14838e+48
-5.27268e+48
-2.75924e+48
-1.33154e+49
-2.95696e+49
-8.40687e+49
-2.47347e+50
-5.42271e+50
-1.46199e+51
-4.53676e+51
3.03638e+50
2.52213e+50
3.09551e+49
-3.25925e+52
-5.45622e+52
-7.86589e+52
-1.00771e+53
-1.15236e+53
-1.14393e+53
-9.39076e+52
-5.01487e+52
-4.87321e+51
3.00704e+51
2.89745e+51
3.55128e+51
2.31733e+51
3.47928e+50
4.66643e+52
-4.69208e+51
2.83613e+53
2.75511e+53
5.48068e+53
1.39241e+54
3.61611e+54
9.58576e+54
2.41355e+55
4.01181e+55
7.00696e+54
2.57291e+55
6.64597e+55
1.39759e+56
4.04312e+56
1.26862e+57
-4.91498e+56
-2.2264e+57
-5.08677e+57
-6.80949e+57
-1.10835e+58
-1.68585e+58
-2.53248e+58
-3.89209e+58
-5.54379e+58
-7.53781e+58
-9.63827e+58
-1.1768e+59
-1.49541e+59
-2.57715e+59
-7.0589e+59
2.65629e+59
1.21733e+60
3.76209e+60
1.05591e+61
-1.14385e+61
-2.91641e+61
5.07569e+60
-7.02504e+61
1.01916e+61
1.25583e+61
7.13577e+61
4.44519e+61
7.31273e+61
1.18e+62
1.78553e+62
2.67498e+62
3.10205e+62
-1.03149e+63
-1.31016e+63
-4.74452e+64
6.04822e+64
8.63931e+64
1.77861e+65
4.17526e+65
1.04403e+66
2.69478e+66
6.96612e+66
1.66725e+67
4.88544e+67
1.42472e+68
-7.53085e+67
4.29177e+66
-3.54996e+67
-1.26969e+68
-3.72773e+68
-3.0241e+68
-9.48392e+68
-7.4156e+66
5.58143e+67
1.83961e+68
6.5341e+68
1.82294e+69
3.36867e+69
9.85011e+69
1.94593e+70
5.95275e+70
1.13665e+71
2.18617e+71
4.41722e+71
7.91986e+71
2.52749e+72
1.35112e+73
7.7964e+71
-3.49368e+71
1.79337e+73
2.84963e+73
2.69576e+73
3.46634e+73
2.51588e+73
8.35754e+73
2.36322e+72
2.36724e+72
5.86216e+72
1.93665e+73
2.52134e+73
2.71133e+73
-2.4402e+72
1.60035e+71
7.44493e+71
-1.42638e+73
-7.36628e+72
-3.49924e+73
-1.13282e+74
-2.58756e+74
-2.22496e+74
-4.24525e+73
-3.48434e+72
-9.77067e+74
-8.1886e+74
-9.27166e+73
5.63856e+74
1.11415e+75
2.77044e+75
3.77094e+75
7.53412e+75
1.66968e+76
2.7423e+76
4.38834e+76
8.23208e+76
1.34093e+77
2.74439e+77
7.0535e+77
1.58091e+78
3.34532e+78
-3.84231e+78
-8.11954e+77
1.15628e+78
-1.81658e+77
8.48468e+77
-2.1043e+76
-2.984e+79
-2.40926e+79
-2.79308e+79
-4.56345e+79
-6.12142e+79
-8.84125e+79
-1.87889e+80
-3.99174e+80
-6.29905e+80
-7.08841e+80
-1.9243e+80
-1.25051e+80
1.80545e+81
7.28293e+81
-3.17994e+82
1.52289e+82
1.05303e+83
1.08412e+83
9.2392e+82
1.94656e+82
-3.37201e+82
-3.97879e+80
-4.68895e+80
-6.80183e+80
-4.66278e+81
-8.666e+81
-3.35595e+81
-4.29387e+82
-5.90701e+82
-4.32626e+82
-1.48936e+82
-7.86465e+82
-2.25449e+83
-4.65038e+83
-7.2376e+83
-1.07695e+84
-1.03581e+84
-6.07604e+83
5.28887e+82
1.20717e+81
-1.61171e+82
-9.17021e+83
-1.91159e+83
8.01694e+82
2.22868e+83
1.49559e+84
1.35828e+84
1.14509e+84
1.35109e+84
1.26759e+84
-2.74297e+83
-5.5045e+83
-2.62666e+83
-5.93756e+83
-2.01513e+84
-9.30073e+83
5.74114e+84
1.18477e+85
2.79038e+85
3.10697e+86
-1.03142e+85
-6.03042e+83
9.17033e+85
-3.9956e+85
-9.47142e+85
4.89234e+85
2.02022e+86
4.57996e+86
1.65135e+87
6.10116e+87
2.18022e+88
7.43607e+88
2.31123e+89
6.42416e+89
1.63235e+90
3.86399e+90
8.70235e+90
1.88174e+91
3.93445e+91
8.00733e+91
1.58956e+92
3.08722e+92
5.8759e+92
1.09731e+93
2.01261e+93
3.62801e+93
6.43102e+93
1.12139e+94
1.92406e+94
3.24895e+94
5.39982e+94
8.83395e+94
1.42258e+95
2.25498e+95
3.51831e+95
5.40287e+95
8.16557e+95
1.21447e+96
1.77742e+96
2.55953e+96
3.6263e+96
5.05434e+96
6.92986e+96
9.34569e+96
1.23976e+97
1.61563e+97
2.07425e+97
2.61679e+97
3.24829e+97
3.95861e+97
4.75402e+97
5.60658e+97
6.50106e+97
7.41038e+97
8.30228e+97
9.13987e+97
9.88286e+97
1.04888e+98
1.09141e+98
1.11153e+98
1.10506e+98
1.06923e+98
1.00308e+98
9.20568e+97
8.44225e+97
8.51662e+97
1.15125e+98
2.16438e+98
4.79928e+98
1.09753e+99
2.44781e+99
5.26151e+99
1.09381e+100
2.22314e+100
4.41231e+100
8.57197e+100
1.63372e+101
3.05878e+101
5.63171e+101
1.02049e+102
1.821e+102
3.20143e+102
5.54707e+102
9.47498e+102
1.59576e+103
2.65025e+103
4.34079e+103
7.0118e+103
1.11705e+104
1.75505e+104
2.71936e+104
4.15511e+104
6.26055e+104
9.30105e+104
1.36245e+105
1.96775e+105
2.80207e+105
3.9344e+105
5.44795e+105
7.44153e+105
1.00316e+106
1.33562e+106
1.7583e+106
2.29269e+106
2.96834e+106
3.82915e+106
4.94464e+106
6.42938e+106
8.47562e+106
1.14069e+107
1.57645e+107
2.24442e+107
3.29115e+107
4.95322e+107
7.60792e+107
1.18495e+108
1.86032e+108
2.92927e+108
4.60847e+108
7.22399e+108
1.12613e+109
1.7435e+109
2.67858e+109
4.08123e+109
6.16482e+109
9.22969e+109
1.36936e+110
2.0131e+110
2.93219e+110
4.23123e+110
6.04874e+110
8.56574e+110
1.20156e+111
1.66949e+111
2.29753e+111
3.13151e+111
4.2271e+111
5.65072e+111
7.48024e+111
9.80516e+111
1.27261e+112
1.63537e+112
2.0806e+112
2.6205e+112
3.2672e+112
4.03211e+112
4.92514e+112
5.95384e+112
7.12237e+112
8.43043e+112
9.87211e+112
1.14347e+113
1.30975e+113
1.48302e+113
1.65915e+113
1.83264e+113
1.99631e+113
2.14075e+113
2.25373e+113
2.31947e+113
2.31832e+113
2.22782e+113
2.02623e+113
1.69804e+113
1.23451e+113
4.84041e+112
9.23861e+110
-1.12503e+113
-2.53839e+113
-4.56831e+113
-7.22923e+113
-1.06051e+114
-1.47499e+114
-1.97417e+114
-2.5657e+114
-3.25553e+114
-4.04653e+114
-4.93763e+114
-5.92323e+114
-6.99278e+114
-8.13053e+114
-9.31557e+114
-1.05221e+115
-1.17202e+115
-1.28768e+115
-1.39571e+115
-1.49261e+115
-1.57504e+115
-1.64002e+115
-1.68506e+115
-1.70832e+115
-1.70873e+115
-1.68608e+115
-1.641e+115
-1.57497e+115
-1.49023e+115
-1.38968e+115
-1.27669e+115
-1.15496e+115
-1.02833e+115
-9.00556e+114
-7.75157e+114
-6.55267e+114
-5.43503e+114
-4.41882e+114
-3.51769e+114
-2.73873e+114
-2.08276e+114
-1.54505e+114
-1.1164e+114
-7.84419e+113
-5.34932e+113
-3.53153e+113
-2.24479e+113
-1.3511e+113
-7.48998e+112
2.64842e+111
8.43282e+110
9.68433e+109
-5.85379e+108
8.58095e+109
-1.03978e+111
8.14716e+108
-1.35933e+108
-2.47331e+108
-1.88571e+108
4.80049e+108
1.95383e+109
7.36914e+108
7.67356e+108
2.1645e+108
1.84667e+108
1.03376e+108
-3.6916e+108
-9.8458e+107
6.32501e+107
1.13059e+106
-6.05806e+106
-1.62092e+107
1.82466e+107
-1.71117e+107
1.66717e+107
3.55006e+107
8.94492e+107
1.50723e+108
-1.37247e+108
-2.31201e+106
-3.10264e+106
1.34984e+108
1.76541e+108
1.94212e+108
2.02066e+108
1.71028e+108
2.785e+108
1.07913e+26
1.06833e+27
1.61412e+27
6.52144e+26
3.29477e+26
1.38536e+27
1.93766e+26
4.50804e+26
8.22977e+26
1.56097e+27
3.65536e+27
2.9382e+27
1.98306e+28
2.39758e+28
1.28176e+28
2.18641e+28
1.55739e+28
1.46656e+28
1.44147e+28
2.24677e+28
1.18025e+29
2.03681e+29
-6.22665e+27
-1.45443e+30
-1.40733e+30
-1.02874e+30
-6.95127e+28
-1.88629e+29
-5.24668e+29
-8.65393e+29
-1.18574e+30
-1.25796e+30
-4.76464e+30
-5.82306e+30
-2.32792e+31
-2.44729e+31
-2.67262e+31
-9.01697e+31
-3.72708e+31
-6.90378e+31
4.28933e+32
7.85436e+31
3.92577e+32
2.14249e+33
1.60074e+34
1.21163e+34
2.39959e+34
4.66701e+34
5.20652e+34
-4.76402e+34
-1.13285e+35
-1.22061e+35
-7.53686e+34
-3.41793e+35
-6.202e+35
-1.05663e+36
-2.20034e+36
-4.68206e+36
-9.88896e+36
-1.39685e+37
-2.25006e+37
-2.09657e+37
-4.60929e+36
-5.97495e+37
-3.14736e+38
-3.33435e+38
-3.4835e+40
3.40847e+39
5.84787e+39
8.65202e+39
3.01553e+40
1.76028e+40
1.59644e+41
1.21957e+41
1.64839e+41
-1.53741e+40
1.58849e+41
2.2248e+41
3.86329e+40
4.57874e+42
7.04731e+42
1.39894e+42
-1.31125e+42
-7.16412e+42
-8.47377e+42
-1.50231e+44
1.65633e+44
2.61909e+45
7.73098e+43
2.40694e+43
3.92116e+44
-7.54075e+42
-2.9668e+41
-3.52191e+42
-1.69132e+43
-1.73036e+43
8.79025e+43
-1.38638e+43
7.69861e+42
6.96305e+42
2.41908e+43
7.23268e+43
-1.52947e+45
-5.04055e+43
2.1292e+43
2.74383e+43
-2.4967e+43
2.01967e+43
7.0887e+44
-1.4929e+44
1.70225e+43
7.54871e+44
4.58483e+44
2.5768e+42
-3.60037e+44
2.66666e+45
-1.4153e+46
1.6207e+46
-8.47256e+47
-1.63785e+47
7.19336e+46
-3.47708e+49
-1.89102e+45
4.80849e+46
-1.1305e+48
-8.08718e+45
-6.11932e+47
-3.56959e+47
-1.38624e+47
-3.94209e+47
-1.84756e+48
-8.91503e+47
2.30631e+48
8.00336e+48
-9.02586e+48
-1.23107e+50
5.90522e+49
1.75178e+50
1.02977e+50
1.82635e+50
-7.7585e+49
4.26401e+51
7.52672e+51
1.13536e+52
1.51798e+52
1.81406e+52
1.88642e+52
1.57896e+52
9.32717e+51
1.92981e+51
3.60581e+49
-9.32646e+49
1.26534e+51
8.13889e+50
-1.01216e+52
2.59405e+52
-2.46899e+52
1.1998e+53
-6.57888e+52
-1.29635e+53
-2.60466e+53
-6.28337e+53
-1.29907e+54
-2.48134e+54
-5.91462e+54
-4.59083e+54
-8.48891e+54
-1.46834e+55
-6.73935e+55
-4.74351e+55
-3.05809e+56
4.28026e+56
1.66156e+56
-7.28159e+56
-1.06205e+56
-2.72445e+56
3.34783e+56
1.11283e+57
-1.1501e+57
-1.04052e+57
-8.79596e+56
-1.71756e+57
-7.41826e+57
-3.02931e+58
-1.44888e+59
-7.94346e+59
6.40249e+59
3.93033e+59
-5.06944e+59
-3.07915e+59
-3.32011e+61
-7.1792e+61
-2.08785e+61
3.69666e+60
-1.93077e+60
-2.88002e+60
6.96431e+61
7.71617e+60
1.8881e+61
4.45019e+61
1.00452e+62
2.11223e+62
3.9524e+62
5.60425e+62
4.82112e+62
1.17928e+63
2.01719e+63
3.20553e+63
4.77054e+63
6.93657e+63
9.24223e+63
1.46004e+64
4.53968e+64
1.8892e+65
-3.73931e+64
-4.58772e+65
4.52252e+66
-1.02327e+67
2.23461e+66
-2.6096e+66
-4.42551e+67
3.82413e+68
8.87131e+68
-3.94119e+66
4.13853e+65
-5.81139e+67
-1.23555e+68
1.56469e+68
-1.05177e+69
-2.58568e+68
-2.99574e+68
-6.47276e+68
3.22535e+69
1.65063e+70
5.00552e+70
-1.11117e+71
6.37197e+68
-3.53102e+72
-6.38451e+71
4.11296e+70
-5.59222e+71
-6.07683e+71
-3.382e+72
-1.21926e+72
-9.6818e+71
-1.91851e+73
-1.5885e+71
-3.18749e+71
-4.32638e+71
4.25692e+72
4.74696e+72
-2.37641e+72
1.24908e+71
-4.57121e+70
7.05893e+71
8.62376e+72
1.13294e+73
1.90069e+73
3.19854e+73
8.21368e+73
6.65852e+73
3.94029e+73
9.73418e+73
-9.97239e+74
1.85096e+74
-5.91792e+73
2.18886e+74
5.80719e+74
1.9633e+75
9.55879e+74
1.91333e+75
4.92181e+75
1.98746e+74
-8.46298e+75
-1.58314e+76
-2.60089e+76
-8.82898e+76
-1.64671e+77
-4.57626e+77
-1.9613e+78
4.6218e+75
-6.71081e+76
-1.43899e+77
-8.90801e+77
3.68381e+76
-3.43644e+78
-3.23711e+78
-2.93067e+78
-6.27271e+78
-5.45085e+78
-8.90444e+78
-1.04895e+79
-5.95759e+78
8.95887e+78
2.99438e+79
5.78013e+79
-2.9161e+79
8.31053e+78
-3.40486e+80
-2.82518e+81
-1.66408e+82
-2.23235e+82
-1.75274e+82
-2.06217e+81
-2.10239e+82
-8.14829e+80
1.04079e+82
9.43404e+80
-5.52725e+80
-6.78e+80
-1.03794e+81
-2.06975e+81
1.57195e+82
-1.70332e+81
-4.61865e+81
-2.60076e+81
-5.75402e+81
-1.24821e+82
3.63072e+82
2.25648e+82
9.66962e+82
-4.91698e+82
6.76367e+82
7.39888e+82
-1.14169e+82
4.87994e+80
2.20262e+81
7.95697e+82
5.61043e+82
-1.76659e+82
-8.95467e+82
7.03651e+83
4.22517e+83
6.52176e+83
8.78184e+83
1.07148e+84
1.74721e+83
-3.5486e+83
5.66869e+81
-7.5178e+81
-1.61187e+84
4.22673e+83
9.61626e+84
-2.97018e+83
8.74547e+84
-4.36036e+85
-1.50881e+85
-8.97376e+83
-4.63718e+84
2.03132e+85
2.2507e+85
1.15378e+85
1.72609e+85
1.22192e+86
2.15407e+85
-8.95072e+85
-6.05691e+86
-2.60196e+87
-9.47224e+87
-2.98013e+88
-8.177e+88
-2.16243e+89
-5.33382e+89
-1.22869e+90
-2.78986e+90
-5.99118e+90
-1.25754e+91
-2.57019e+91
-5.11378e+91
-9.9294e+91
-1.88595e+92
-3.50914e+92
-6.40288e+92
-1.14657e+93
-2.01626e+93
-3.48344e+93
-5.9147e+93
-9.87231e+93
-1.62008e+94
-2.61411e+94
-4.14769e+94
-6.47126e+94
-9.9281e+94
-1.4977e+95
-2.22146e+95
-3.23953e+95
-4.64432e+95
-6.54541e+95
-9.06823e+95
-1.23501e+96
-1.65239e+96
-2.18158e+96
-2.81627e+96
-3.57868e+96
-4.46615e+96
-5.47513e+96
-6.61216e+96
-7.83955e+96
-9.13216e+96
-1.04527e+97
-1.17544e+97
-1.29835e+97
-1.40816e+97
-1.49866e+97
-1.56325e+97
-1.59471e+97
-1.58397e+97
-1.51576e+97
-1.37308e+97
-1.09546e+97
-7.67104e+96
-5.9336e+96
-6.16165e+96
-1.12503e+97
-2.09284e+97
-6.08322e+97
-1.63979e+98
-3.543e+98
-7.68688e+98
-1.65557e+99
-3.47219e+99
-7.0797e+99
-1.40769e+100
-2.73607e+100
-5.2075e+100
-9.72294e+100
-1.78295e+101
-3.21397e+101
-5.69915e+101
-9.94662e+101
-1.70928e+102
-2.89302e+102
-4.82374e+102
-7.92457e+102
-1.28283e+103
-2.04637e+103
-3.21685e+103
-4.98317e+103
-7.60672e+103
-1.14417e+104
-1.69576e+104
-2.47632e+104
-3.56295e+104
-5.05102e+104
-7.05584e+104
-9.71383e+104
-1.31837e+105
-1.76488e+105
-2.33227e+105
-3.04639e+105
-3.94063e+105
-5.06214e+105
-6.48336e+105
-8.3227e+105
-1.07801e+106
-1.41967e+106
-1.91528e+106
-2.66262e+106
-3.82431e+106
-5.66702e+106
-8.62209e+106
-1.33778e+107
-2.10186e+107
-3.32321e+107
-5.2614e+107
-8.31108e+107
-1.30655e+108
-2.04065e+108
-3.163e+108
-4.86188e+108
-7.4077e+108
-1.11843e+109
-1.67303e+109
-2.47917e+109
-3.63899e+109
-5.29054e+109
-7.61795e+109
-1.08637e+110
-1.53424e+110
-2.14571e+110
-2.97161e+110
-4.07506e+110
-5.53322e+110
-7.43881e+110
-9.90125e+110
-1.30471e+111
-1.70198e+111
-2.1978e+111
-2.80923e+111
-3.55408e+111
-4.45021e+111
-5.51463e+111
-6.76244e+111
-8.20553e+111
-9.85109e+111
-1.17001e+112
-1.37459e+112
-1.59719e+112
-1.83508e+112
-2.08421e+112
-2.33903e+112
-2.59223e+112
-2.83424e+112
-3.05262e+112
-3.23092e+112
-3.34728e+112
-3.37305e+112
-3.27306e+112
-3.01155e+112
-2.56915e+112
-1.9788e+112
-2.18455e+112
-4.41466e+110
1.03428e+112
2.78694e+112
5.58835e+112
9.26786e+112
1.39427e+113
1.968e+113
2.66106e+113
3.48646e+113
4.45417e+113
5.56925e+113
6.83092e+113
8.23184e+113
9.75744e+113
1.13855e+114
1.30863e+114
1.48225e+114
1.65507e+114
1.82226e+114
1.97873e+114
2.11932e+114
2.23913e+114
2.33372e+114
2.39941e+114
2.43348e+114
2.43433e+114
2.40163e+114
2.33631e+114
2.24053e+114
2.1176e+114
1.97179e+114
1.80808e+114
1.63191e+114
1.44891e+114
1.2646e+114
1.08412e+114
9.12054e+113
7.52178e+113
6.07397e+113
4.79645e+113
3.69879e+113
2.78125e+113
2.03587e+113
1.44803e+113
9.98538e+112
6.65867e+112
4.28197e+112
2.64052e+112
1.52027e+112
7.44302e+111
1.33577e+110
-3.67102e+109
-2.72013e+109
-1.57681e+109
-2.7969e+108
1.66878e+110
8.00795e+107
-1.70027e+108
1.0714e+107
-1.98815e+107
-3.70832e+107
-1.45285e+109
-5.45403e+108
-5.08933e+107
-2.28823e+106
8.35938e+106
-5.76966e+106
4.53532e+106
4.8939e+106
-5.27473e+106
1.47993e+106
5.3708e+106
6.56167e+106
-3.12916e+105
5.11095e+105
-1.65204e+106
-3.33625e+106
-4.95732e+106
-1.11115e+107
3.9812e+105
-3.32186e+105
-2.34508e+105
-3.63903e+107
-3.34321e+107
-3.34692e+107
-3.67915e+107
-3.86159e+107
-9.02913e+107
-1.31715e+25
4.79162e+25
-8.49081e+25
-9.7892e+25
-2.836e+26
-1.49564e+26
2.68997e+26
8.24861e+26
1.84414e+27
4.2582e+27
7.41538e+27
8.32178e+27
1.21377e+28
2.97335e+28
2.57281e+28
4.27788e+28
2.80486e+28
1.81544e+28
1.18294e+28
-3.23308e+28
2.98872e+28
-6.05489e+28
-5.89515e+29
-1.72496e+30
-9.13976e+29
-1.07617e+30
-7.21779e+29
-5.973e+29
-1.01977e+30
-1.7369e+30
-2.82044e+30
-4.3496e+30
-5.14234e+30
-6.24086e+30
-4.23574e+31
-6.20867e+31
-8.0799e+31
-1.89007e+32
9.79091e+31
1.74655e+32
1.70718e+33
9.69816e+32
2.47235e+33
7.93227e+33
4.8529e+34
3.93417e+34
8.32615e+34
1.63627e+35
2.09844e+35
-2.7623e+34
-1.27166e+35
-6.44902e+34
1.26401e+35
9.34269e+34
2.56323e+35
9.19642e+35
1.48685e+36
1.75165e+36
4.56172e+35
1.16858e+37
2.06268e+37
6.67672e+37
1.66308e+38
1.59665e+38
-3.06977e+38
-4.58431e+38
6.12493e+39
3.16344e+39
4.2549e+39
-7.08094e+37
8.3663e+38
1.08658e+40
4.75459e+40
1.59196e+41
2.90862e+41
2.08759e+40
3.00676e+40
-1.2489e+41
-3.04171e+41
-2.98454e+41
-1.67755e+42
-4.07435e+42
-8.26993e+42
-1.22732e+43
8.98285e+42
-2.10414e+44
-1.13671e+44
-6.82665e+43
1.10453e+44
7.34968e+43
-9.94052e+41
6.50107e+42
-5.55379e+42
6.15936e+41
1.84593e+42
2.72623e+42
-1.48994e+43
2.24511e+42
-1.06604e+42
-3.39245e+42
-1.43408e+42
2.87853e+42
-4.94528e+42
-4.8391e+42
3.66061e+42
9.6523e+42
-2.76606e+43
2.94961e+43
-5.20694e+44
-2.85306e+44
2.99413e+44
1.94714e+45
1.17061e+45
7.54665e+43
-2.66834e+45
-1.99466e+45
-4.78816e+46
-1.02517e+46
-5.47635e+46
-7.18478e+46
-1.04611e+47
-6.82019e+49
4.60653e+46
4.28399e+46
-6.50213e+47
-1.12378e+47
-2.1465e+47
-1.25564e+48
-1.3327e+47
-2.88524e+47
3.37082e+48
-4.82731e+47
9.22503e+47
9.71104e+47
7.43382e+47
-4.33991e+49
2.34467e+49
-3.57956e+50
7.10721e+50
7.18783e+49
3.01906e+49
-2.42316e+50
-5.29425e+50
-7.13205e+50
-9.99061e+50
-1.21662e+51
-1.35111e+51
-1.40675e+51
3.35375e+49
1.23916e+50
8.85639e+49
4.55473e+50
-6.37371e+49
1.41731e+51
-2.6973e+52
3.15251e+51
-3.83633e+52
1.69413e+52
-5.39096e+51
-1.87872e+52
-4.89175e+52
-2.03787e+53
-2.13482e+53
-5.23583e+53
-1.28043e+54
-2.1212e+54
-3.58177e+54
-2.80058e+54
-6.95388e+55
-1.20926e+54
-1.02933e+56
1.04023e+57
4.52736e+55
-3.27827e+56
-5.5744e+55
9.68022e+54
1.56076e+57
3.87328e+57
-6.65558e+56
5.12835e+54
2.36127e+57
7.53776e+57
1.7453e+58
3.45857e+58
7.23209e+58
1.3824e+59
1.98453e+59
-7.69154e+58
-5.63644e+59
-3.62398e+59
-5.21138e+60
-1.86608e+61
-3.9038e+60
5.33059e+59
2.00201e+60
-6.13547e+59
-1.00794e+61
-4.547e+60
-5.06602e+60
2.26572e+60
2.90105e+61
8.48873e+61
1.61597e+62
3.29657e+62
5.91296e+62
1.25037e+63
2.40431e+63
4.21898e+63
6.75971e+63
1.06868e+64
1.65987e+64
3.18313e+64
8.24075e+64
7.03077e+64
-1.14457e+65
-1.24838e+66
1.71018e+66
-4.35793e+66
9.03053e+66
3.23539e+67
1.22428e+68
4.15446e+68
1.28701e+69
-9.691e+66
8.80588e+66
-9.25503e+67
-2.49239e+68
7.3567e+68
-2.4162e+69
-2.74558e+68
-5.1578e+68
2.98027e+68
3.54209e+69
2.33026e+70
7.15491e+70
-2.37938e+71
-3.54086e+69
-4.80756e+72
9.20997e+70
1.19526e+71
9.37729e+71
-5.81586e+70
2.91374e+72
-7.73909e+72
1.9867e+72
-2.36805e+71
-5.46257e+71
4.71143e+71
1.04186e+72
1.49851e+72
4.29798e+72
-1.13616e+73
1.7248e+71
1.60678e+71
1.38786e+70
-9.3445e+70
-2.41534e+71
-2.43799e+71
1.48077e+71
-4.78155e+72
-4.33404e+72
1.62119e+73
2.72119e+73
8.77348e+73
5.17271e+73
1.75025e+74
3.7889e+74
7.6133e+74
1.5419e+75
3.04489e+75
6.3146e+75
1.67721e+76
1.20929e+76
8.02416e+75
-9.7536e+75
2.47086e+76
2.08229e+76
4.94529e+76
7.42002e+76
4.89781e+76
-8.09286e+76
-1.43794e+77
-3.32237e+77
-1.03797e+77
-2.20712e+78
-2.56034e+78
-2.32126e+78
-5.13546e+78
-8.40976e+78
-8.36723e+78
-1.74149e+79
-2.16448e+79
-2.5433e+79
-2.51621e+79
-2.31903e+79
-1.10078e+79
-1.37211e+79
5.46721e+79
3.95083e+80
-1.32452e+80
-1.06741e+82
-7.68944e+81
1.12879e+81
-6.5404e+80
-2.88116e+81
-1.25732e+81
2.74067e+81
-3.90311e+81
-1.44233e+80
-4.46591e+80
-9.89059e+80
-4.112e+81
2.39132e+82
-6.31e+81
-1.70892e+82
-9.52403e+81
-9.61209e+81
-1.80318e+82
-8.88075e+81
-6.99082e+81
-6.02891e+81
-3.83678e+81
-8.77415e+81
-8.82654e+81
3.23236e+81
3.27892e+81
8.43593e+80
2.3453e+79
1.28487e+83
7.74133e+82
-2.41185e+83
4.9315e+83
4.89856e+83
8.11365e+83
1.10243e+84
1.85322e+84
4.18847e+83
-7.38044e+83
6.46189e+82
8.41754e+82
-4.25472e+83
2.67992e+83
1.74242e+85
-9.08557e+83
2.96644e+83
-7.69231e+84
-3.17437e+85
-2.40555e+82
4.27449e+84
2.60508e+84
4.02317e+84
9.79715e+84
1.8059e+85
2.84475e+86
6.35006e+85
1.12391e+86
2.12775e+86
4.12304e+86
6.94642e+86
1.46187e+87
9.13278e+87
1.27024e+88
2.37051e+88
6.7726e+88
9.23485e+88
3.1592e+89
6.84828e+89
1.36999e+90
2.76258e+90
5.48629e+90
1.05889e+91
1.99159e+91
3.66613e+91
6.61779e+91
1.17255e+92
2.04047e+92
3.48885e+92
5.86275e+92
9.68411e+92
1.57249e+93
2.51005e+93
3.93833e+93
6.0734e+93
9.20509e+93
1.37145e+94
2.0095e+94
2.89767e+94
4.11552e+94
5.7517e+94
7.88247e+94
1.07715e+95
1.35918e+95
1.79178e+95
2.32348e+95
2.88666e+95
4.13328e+95
4.31683e+95
5.13536e+95
5.99568e+95
6.87726e+95
7.74763e+95
8.57239e+95
9.31339e+95
9.92579e+95
1.03686e+96
1.05913e+96
1.05458e+96
1.01795e+96
8.03386e+95
7.76208e+95
6.96899e+95
5.04737e+95
1.12111e+96
3.03238e+95
6.48959e+96
4.72648e+96
5.93462e+96
2.00141e+97
4.13327e+97
9.23646e+97
1.91032e+98
3.89025e+98
7.81484e+98
1.52063e+99
2.92679e+99
5.51325e+99
1.01882e+100
1.84969e+100
3.30214e+100
5.8004e+100
1.00297e+101
1.7078e+101
2.86425e+101
4.73244e+101
7.70387e+101
1.23569e+102
1.95296e+102
3.04132e+102
4.66663e+102
7.05499e+102
1.0508e+103
1.5419e+103
2.22887e+103
3.17399e+103
4.45284e+103
6.15505e+103
8.38484e+103
1.1262e+104
1.49244e+104
1.95356e+104
2.53011e+104
3.25033e+104
4.15681e+104
5.31846e+104
6.85162e+104
8.95546e+104
1.19708e+105
1.64755e+105
2.34361e+105
3.44471e+105
5.21001e+105
8.05499e+105
1.26371e+106
1.99837e+106
3.1681e+106
5.01505e+106
7.90453e+106
1.23816e+107
1.92501e+107
2.96825e+107
4.53684e+107
6.87154e+107
1.03112e+108
1.53272e+108
2.25669e+108
3.29082e+108
4.75266e+108
6.79746e+108
9.62752e+108
1.35027e+109
1.87518e+109
2.57847e+109
3.51042e+109
4.73163e+109
6.31387e+109
8.34047e+109
1.09062e+110
1.41162e+110
1.80841e+110
2.29291e+110
2.87713e+110
3.57258e+110
4.38958e+110
5.33638e+110
6.41819e+110
7.63616e+110
8.98628e+110
1.04583e+111
1.20346e+111
1.36893e+111
1.53865e+111
1.70793e+111
1.87069e+111
2.01907e+111
2.14275e+111
2.22798e+111
2.25625e+111
2.20335e+111
2.04091e+111
1.7452e+111
1.3178e+111
7.84988e+110
5.24699e+109
-5.21846e+110
-1.5384e+111
-3.39762e+111
-5.80489e+111
-8.85271e+111
-1.25845e+112
-1.71021e+112
-2.25006e+112
-2.88498e+112
-3.61855e+112
-4.45051e+112
-5.37622e+112
-6.38626e+112
-7.46608e+112
-8.59592e+112
-9.75105e+112
-1.09024e+113
-1.20177e+113
-1.30626e+113
-1.40024e+113
-1.4804e+113
-1.54375e+113
-1.58779e+113
-1.61069e+113
-1.61136e+113
-1.58957e+113
-1.54593e+113
-1.48192e+113
-1.39976e+113
-1.30233e+113
-1.19298e+113
-1.07538e+113
-9.53332e+112
-8.30534e+112
-7.10446e+112
-5.96123e+112
-4.90099e+112
-3.943e+112
-3.10003e+112
-2.37822e+112
-1.77743e+112
-1.29189e+112
-9.11345e+111
-6.225e+111
-4.10566e+111
-2.6004e+111
-1.58156e+111
-9.0663e+110
-4.8028e+110
1.55778e+110
-5.82568e+108
6.75468e+107
-4.54772e+108
-7.04667e+108
-1.35268e+109
1.037e+108
-5.5775e+108
1.23831e+107
-3.40584e+107
9.144e+107
1.45317e+108
4.9879e+107
3.33585e+107
8.11582e+106
-9.4942e+106
1.5705e+105
5.94571e+105
3.15213e+105
-6.28641e+106
1.3493e+106
1.5407e+106
2.13539e+105
2.24879e+105
1.28852e+105
-5.15839e+104
1.47137e+104
1.18796e+105
1.02326e+105
-1.73484e+105
-2.62448e+105
1.31566e+105
1.88891e+106
1.4057e+106
1.65669e+106
2.15388e+106
1.87839e+106
5.69505e+106
-2.199e+25
2.20586e+25
2.0926e+25
-2.82726e+25
5.59236e+24
2.9424e+25
1.37702e+26
5.26862e+26
2.00251e+27
4.66023e+27
8.55925e+27
5.81158e+27
1.50097e+28
2.34558e+28
3.96756e+28
5.50145e+28
1.93451e+28
-4.65807e+28
-6.01979e+28
-1.96436e+29
-1.41725e+29
-6.55865e+29
-7.57372e+29
-1.41026e+30
-4.95307e+28
-2.19883e+29
-2.47466e+29
-1.24828e+29
-2.08663e+29
-3.77777e+29
-5.85661e+29
-6.42851e+29
2.23213e+30
4.96625e+30
-2.72758e+31
-5.59961e+31
-1.29287e+31
-1.06903e+32
1.05513e+33
1.7022e+33
6.96564e+33
6.15831e+33
1.29221e+34
3.09074e+34
1.51101e+35
1.18609e+35
2.30536e+35
4.19174e+35
5.1192e+35
1.35269e+35
1.58776e+35
5.43425e+35
1.21261e+36
2.29535e+36
4.0819e+36
8.1548e+36
1.35799e+37
2.04987e+37
2.65257e+37
8.11342e+37
1.38183e+38
2.8914e+38
4.88421e+38
3.4844e+38
-3.3908e+38
-4.25887e+38
4.76483e+38
6.6738e+38
7.89664e+38
1.08836e+39
1.18489e+39
1.91918e+39
5.22244e+39
1.17264e+41
2.79611e+41
1.97376e+40
-1.34272e+40
-2.23111e+41
-2.24058e+41
6.35908e+41
-8.42421e+41
-3.08696e+42
-6.71139e+42
-7.00935e+42
5.96989e+43
-1.28996e+45
-8.88358e+44
6.41985e+44
2.24796e+44
1.99082e+44
2.94233e+42
-8.60305e+42
-1.09404e+43
-7.60881e+40
-2.25041e+41
8.1929e+41
-8.7736e+41
-6.77496e+41
-8.23202e+41
-7.56886e+42
-3.35884e+42
-9.25064e+42
-7.25598e+41
-4.09993e+42
4.96985e+42
-1.45428e+43
1.90268e+43
1.01812e+44
-1.00368e+45
-6.6596e+44
1.27057e+44
6.16023e+45
4.29911e+45
3.10913e+45
-3.79197e+45
7.08879e+45
-1.35965e+47
-1.13658e+46
-2.83245e+46
-6.36535e+46
-3.88234e+46
-1.3915e+50
-2.11269e+46
-1.60677e+47
-4.56525e+47
-1.92864e+47
-2.28908e+46
-5.82825e+47
-5.89879e+47
-7.47272e+47
-7.55666e+47
1.82695e+48
-6.99545e+48
1.19149e+48
-1.20722e+49
-5.44612e+49
-8.68101e+49
8.66203e+49
6.52515e+50
4.44902e+49
1.91725e+49
1.52986e+48
-1.73111e+50
5.13499e+49
3.02473e+49
9.0521e+49
-1.91148e+49
-5.1296e+50
1.31273e+51
7.79492e+50
-3.80384e+50
2.59958e+50
3.06288e+50
1.07204e+51
-7.42047e+52
-4.11563e+51
-1.08069e+52
3.75994e+52
3.0869e+51
-1.19327e+52
-5.7857e+52
-2.91108e+53
-1.70805e+53
-4.53863e+53
-1.80175e+54
-3.55589e+54
-6.17245e+54
-9.37287e+54
-9.2947e+54
-2.0411e+55
2.01895e+55
-3.43314e+55
-2.07757e+55
-4.89739e+56
-1.61385e+56
-2.26104e+56
-2.59643e+56
-5.30053e+55
-4.66111e+56
-5.47196e+56
7.58431e+56
2.4892e+57
4.25068e+57
6.4129e+57
1.0927e+58
-1.22629e+57
6.67576e+57
-1.2016e+59
-2.97173e+58
-2.63329e+59
-2.13848e+60
-3.15255e+60
-2.52561e+58
7.91896e+59
6.71916e+59
-1.43361e+60
-4.43317e+60
-7.01227e+60
-1.2241e+61
-1.42979e+61
-8.27931e+60
1.3092e+61
6.54884e+61
1.91226e+62
5.85467e+62
1.46931e+63
3.25731e+63
6.52692e+63
1.20012e+64
2.20071e+64
3.8394e+64
7.40811e+64
1.64684e+65
6.72076e+64
3.29164e+65
2.49039e+65
-1.05594e+66
-1.12171e+66
-7.73672e+65
-6.82369e+66
-9.30149e+66
3.79345e+67
-3.29209e+67
-4.06619e+67
6.23866e+67
6.30583e+67
-1.03384e+68
1.86653e+68
-5.30939e+68
-5.61201e+68
-1.16008e+69
-5.34618e+68
-1.71497e+69
4.56123e+69
1.93913e+70
2.88566e+70
-4.18263e+70
4.02456e+70
2.81282e+71
3.2882e+71
2.09908e+72
-6.32605e+71
-9.68876e+72
-5.29435e+72
4.54164e+72
5.58875e+70
-4.19666e+71
1.17678e+71
2.20322e+71
2.19874e+71
2.76126e+71
-1.46941e+72
1.42829e+70
-7.28941e+70
-2.21258e+71
7.67451e+70
4.72191e+70
1.28632e+70
-2.63688e+71
5.02041e+71
2.61346e+72
6.38861e+72
1.21759e+73
9.56341e+72
3.4528e+73
1.21858e+74
3.24922e+74
8.14234e+74
1.90603e+75
4.31177e+75
9.97091e+75
2.61117e+76
2.1975e+76
1.56377e+76
4.3074e+76
2.60345e+76
2.19148e+76
6.24441e+76
4.99111e+76
-9.60524e+76
-5.60591e+76
-1.94664e+77
-4.42e+77
-7.01746e+77
-1.58007e+78
-2.21655e+78
5.31376e+77
-2.56982e+78
-4.79238e+78
1.15485e+78
-1.50083e+79
-2.02479e+79
-2.36983e+79
-2.08739e+79
-1.74949e+79
-3.45859e+78
-2.6157e+79
-2.95832e+78
-2.07569e+78
3.26779e+80
-1.63885e+81
2.05702e+81
-1.08747e+81
-5.64759e+81
-3.24678e+81
-3.08725e+81
3.24828e+81
-4.8294e+80
4.94935e+80
-3.66031e+80
-9.62582e+80
-6.16773e+81
3.97929e+82
-1.05009e+81
-2.46039e+82
-8.51943e+81
-9.07141e+81
-2.48685e+82
-9.83056e+81
-4.22253e+81
-3.2038e+81
-2.13105e+81
-8.24078e+81
-7.18358e+81
3.93534e+81
1.0622e+82
-1.86439e+81
-3.558e+81
-1.76749e+82
1.88585e+82
1.92402e+83
6.62695e+82
2.99252e+83
6.22062e+83
1.0203e+84
2.71513e+84
1.2506e+84
-1.24488e+84
1.14224e+83
1.8525e+83
1.24747e+84
-1.22668e+83
-8.38913e+83
-9.6789e+83
-2.26507e+83
-7.76764e+84
4.26938e+84
-4.86612e+84
4.74417e+84
8.00926e+84
4.73762e+84
7.26685e+84
1.74324e+85
7.746e+86
7.01252e+85
1.16888e+86
2.07231e+86
3.7679e+86
6.55284e+86
1.13215e+87
1.77988e+87
2.41975e+87
2.82919e+87
4.11341e+87
-8.22487e+88
-1.11264e+88
-5.84259e+87
-9.04162e+88
-1.69557e+89
-1.91878e+89
-2.08565e+89
-2.73233e+89
-4.09335e+89
-6.54853e+89
-1.08622e+90
-1.84206e+90
-3.16953e+90
-5.51263e+90
-9.69212e+90
-1.72868e+91
-3.14333e+91
-5.83359e+91
-1.09405e+92
-2.01857e+92
-3.50965e+92
-5.45964e+92
-7.12179e+92
-6.69602e+92
-3.86341e+92
-4.54584e+92
3.73584e+93
-1.39616e+94
-1.09942e+94
-4.0285e+93
-1.04994e+94
1.33501e+95
-7.90745e+93
-8.414e+93
-1.02098e+94
-1.19071e+94
-1.37708e+94
-1.54699e+94
-1.68043e+94
-1.81336e+94
-1.92732e+94
-2.00593e+94
-1.81684e+94
-4.17152e+93
-3.36181e+95
6.0192e+94
4.4459e+95
2.6314e+95
3.1326e+95
-6.59216e+95
1.65188e+96
3.61274e+96
3.71781e+96
2.40079e+96
-4.98521e+95
-1.79141e+95
-2.79222e+96
-1.30427e+97
-1.97376e+97
-3.17726e+97
-5.38005e+97
-8.04348e+97
-1.25814e+98
-2.02296e+98
-3.31643e+98
-5.51729e+98
-9.26891e+98
-1.56454e+99
-2.64095e+99
-4.44007e+99
-7.41054e+99
-1.22468e+100
-2.00015e+100
-3.22351e+100
-5.12101e+100
-8.01296e+100
-1.2342e+101
-1.87042e+101
-2.78816e+101
-4.0871e+101
-5.89058e+101
-8.34653e+101
-1.16266e+102
-1.59234e+102
-2.14473e+102
-2.84238e+102
-3.70979e+102
-4.77566e+102
-6.07828e+102
-7.6773e+102
-9.6753e+102
-1.22551e+103
-1.57383e+103
-2.06772e+103
-2.79955e+103
-3.92166e+103
-5.68376e+103
-8.49374e+103
-1.30135e+104
-2.03064e+104
-3.20603e+104
-5.09215e+104
-8.09891e+104
-1.28537e+105
-2.03054e+105
-3.18724e+105
-4.96493e+105
-7.66918e+105
-1.17402e+106
-1.78041e+106
-2.67401e+106
-3.9766e+106
-5.85463e+106
-8.53241e+106
-1.23079e+107
-1.75712e+107
-2.4825e+107
-3.47073e+107
-4.80142e+107
-6.57221e+107
-8.9007e+107
-1.19257e+108
-1.58078e+108
-2.07284e+108
-2.68869e+108
-3.44966e+108
-4.37772e+108
-5.49452e+108
-6.82017e+108
-8.37171e+108
-1.01614e+109
-1.21949e+109
-1.44693e+109
-1.6971e+109
-1.96747e+109
-2.25409e+109
-2.55158e+109
-2.85297e+109
-3.14969e+109
-3.43138e+109
-3.68554e+109
-3.89606e+109
-4.03932e+109
-4.07572e+109
-3.94474e+109
-3.61751e+109
-3.32553e+109
-3.95338e+109
-1.24605e+109
-1.5326e+109
6.12236e+107
2.9789e+109
7.21796e+109
1.21948e+110