/*--------------------------------*- C++ -*----------------------------------*\
  =========                 |
  \\      /  F ield         | OpenFOAM: The Open Source CFD Toolbox
   \\    /   O peration     | Website:  https://openfoam.org
    \\  /    A nd           | Version:  9
     \\/     M anipulation  |
\*---------------------------------------------------------------------------*/
FoamFile
{
    format      ascii;
    class       volScalarField;
    location    "1";
    object      f_5;
}
// * * * * * * * * * * * * * * * * * * * * * * * * * * * * * * * * * * * * * //

dimensions      [1 -3 0 0 0 0 0];

internalField   nonuniform List<scalar> 
120000
(
-2.72385e+26
-2.3091e+26
-6.33516e+25
2.45116e+26
3.54291e+26
6.70852e+26
9.98969e+26
2.5995e+26
1.19975e+27
2.4079e+27
4.21012e+27
6.70197e+27
7.2473e+27
1.01825e+28
1.52603e+28
2.39851e+28
3.86638e+28
5.99352e+28
8.30398e+28
1.08146e+29
1.21833e+29
9.7057e+28
3.39603e+28
6.45883e+28
2.8509e+29
4.33324e+29
7.63125e+29
1.38007e+30
2.94395e+30
5.89909e+30
1.02645e+31
1.32764e+31
1.51232e+31
2.16028e+31
3.20896e+31
4.36806e+31
4.75035e+31
3.72088e+31
-2.40276e+30
-1.20994e+32
-3.94189e+32
-8.81096e+32
-1.64615e+33
-2.78149e+33
-4.11032e+33
-4.72123e+33
-2.05284e+33
8.2363e+33
3.13971e+34
7.16492e+34
1.13609e+35
1.4257e+35
1.33825e+35
6.43071e+34
-1.1251e+35
-3.93421e+35
-5.44654e+35
7.41341e+34
2.95879e+36
1.09128e+37
2.71589e+37
4.97999e+37
5.778e+37
-1.52543e+37
-4.14323e+38
3.796e+38
-4.53105e+39
-7.33441e+39
-8.41683e+39
-1.88646e+40
-4.74916e+40
-7.11621e+40
-2.79434e+40
-3.99188e+39
1.51633e+41
1.14266e+41
-3.16976e+40
-3.46678e+40
-2.49517e+41
7.2063e+40
7.94393e+41
2.31259e+42
5.74847e+42
1.56775e+43
5.64572e+43
2.19253e+44
6.84836e+44
-2.20499e+44
-7.63199e+43
-3.43562e+43
4.90032e+43
-1.08854e+44
-2.88302e+43
-3.94045e+42
-2.46806e+42
-8.48659e+42
2.74289e+43
1.32811e+43
8.82908e+42
1.16046e+43
3.52165e+43
1.4206e+44
1.10073e+44
-5.9601e+44
-3.65014e+44
-1.62406e+44
-2.23636e+43
-4.12804e+43
-2.10693e+43
2.11671e+43
-1.18002e+43
-1.33147e+43
-1.7558e+43
-4.00294e+43
9.31032e+43
-1.86676e+44
-1.62029e+44
-2.57126e+45
-5.96468e+45
-8.69593e+45
-1.72052e+46
1.18042e+48
3.23144e+47
9.51654e+46
1.29603e+47
1.32842e+47
2.60081e+47
2.1027e+47
-2.28599e+48
9.28591e+48
1.36715e+49
-3.73901e+48
-1.16417e+49
-2.65957e+49
-6.02823e+49
-1.63702e+50
-3.66854e+50
-9.90745e+50
5.22798e+50
-8.01832e+50
-8.85583e+50
-1.74533e+50
4.3046e+50
1.08189e+51
1.851e+51
2.68084e+51
3.37062e+51
3.64781e+51
3.15002e+51
1.88687e+51
1.38757e+51
1.67926e+51
3.01393e+51
1.42044e+51
3.19722e+51
9.33711e+51
1.29365e+52
1.12756e+52
8.04847e+52
1.98496e+53
4.55549e+53
1.04704e+54
2.34199e+54
5.64896e+54
8.93533e+54
8.35097e+54
1.26314e+55
2.7102e+55
6.44669e+55
1.53481e+56
9.5103e+55
-3.49387e+55
-1.0702e+56
-7.56742e+55
-2.12959e+55
2.06453e+55
1.44028e+55
-1.24497e+56
-5.7227e+56
-1.74201e+57
-4.10029e+57
-8.03696e+57
-1.33284e+58
-1.62046e+58
1.17366e+58
1.43527e+59
5.61618e+59
1.6235e+60
3.43021e+60
6.58876e+60
1.3563e+61
8.13399e+60
-7.57855e+60
5.13645e+60
3.54937e+60
6.49755e+60
7.58201e+60
1.53973e+61
2.27128e+61
2.926e+61
4.41837e+61
1.02138e+62
2.63225e+62
7.14316e+62
2.28304e+63
3.91794e+63
8.49921e+63
2.06812e+64
5.31147e+64
1.40048e+65
3.74143e+65
1.00519e+66
2.70773e+66
7.25768e+66
1.91457e+67
5.41119e+67
-4.64627e+66
-8.54644e+66
-1.93016e+67
-4.67075e+67
-9.54635e+67
-1.27026e+68
-5.32041e+68
-1.41071e+68
-1.33318e+67
8.06738e+67
1.87873e+68
4.9329e+68
1.20844e+69
2.81038e+69
6.92326e+69
1.36912e+70
2.54086e+70
4.42592e+70
8.20085e+70
1.87892e+71
4.31658e+71
-3.02256e+71
-7.75922e+71
4.16886e+70
-1.52928e+71
-5.47798e+71
-7.3745e+71
-1.94549e+72
-9.45457e+71
-8.22299e+72
-2.18288e+72
-3.35601e+71
6.33588e+71
2.06471e+72
4.37948e+72
4.33061e+72
1.95405e+72
7.50397e+71
-2.39096e+71
-4.3967e+72
-1.09993e+73
-2.63313e+73
-5.42346e+73
-6.04705e+73
-1.83302e+73
3.40339e+73
-2.39772e+73
5.199e+73
3.08412e+73
2.28031e+74
4.10804e+74
6.19914e+74
9.69237e+74
1.55775e+75
2.63958e+75
4.60919e+75
8.62213e+75
1.72081e+76
3.38283e+76
7.48204e+76
1.7109e+77
3.62455e+77
6.29125e+77
-3.91875e+76
-4.96045e+77
-1.85853e+76
4.00616e+77
4.25673e+77
-1.89967e+77
-2.28181e+78
-3.14057e+78
-3.37606e+78
-4.85099e+78
-5.88604e+78
-6.87542e+78
-9.29793e+78
-1.17872e+79
-1.12491e+79
-8.59497e+78
9.03298e+77
-4.54359e+79
-9.59312e+79
-2.8337e+80
-1.15269e+81
8.80753e+80
5.77785e+80
-1.36072e+81
-3.05683e+81
-4.51771e+81
-2.70108e+81
2.76331e+80
8.61715e+80
3.30593e+80
-2.81412e+80
-9.9951e+80
-1.20727e+81
-2.33987e+81
-1.08025e+81
4.61727e+80
1.01644e+81
-8.97661e+80
-3.73998e+81
-1.49502e+81
3.08889e+81
1.44873e+82
1.80088e+82
3.51695e+82
3.98098e+82
2.58302e+82
-6.60428e+81
-2.16739e+82
3.26343e+82
3.57105e+82
5.02051e+82
6.72397e+82
1.0831e+83
9.72377e+82
6.56825e+82
2.08227e+82
-3.35341e+81
3.4652e+82
1.3761e+83
2.26493e+83
5.24942e+83
1.23549e+84
1.7127e+84
2.88657e+84
5.96701e+84
1.23238e+85
-2.52191e+85
-6.51197e+84
2.93017e+84
-3.24473e+84
7.55455e+84
4.17832e+85
6.19917e+85
8.6374e+85
2.062e+86
5.56005e+86
1.44607e+87
3.49871e+87
7.7947e+87
1.60517e+88
3.11942e+88
5.84038e+88
1.06487e+89
1.90004e+89
3.31073e+89
5.65539e+89
9.39655e+89
1.51879e+90
2.3736e+90
3.55549e+90
5.03771e+90
6.57461e+90
7.43197e+90
5.88075e+90
-1.70669e+90
-2.23995e+91
-6.92518e+91
-1.6535e+92
-3.50041e+92
-6.88202e+92
-1.28358e+93
-2.29731e+93
-3.97283e+93
-6.6678e+93
-1.08936e+94
-1.73607e+94
-2.70276e+94
-4.11467e+94
-6.1301e+94
-8.94248e+94
-1.27793e+95
-1.7912e+95
-2.46466e+95
-3.31907e+95
-4.38673e+95
-5.68377e+95
-7.26444e+95
-9.05414e+95
-1.11053e+96
-1.33793e+96
-1.58295e+96
-1.83918e+96
-2.09849e+96
-2.35117e+96
-2.58621e+96
-2.79126e+96
-2.95229e+96
-3.0517e+96
-3.06218e+96
-2.93813e+96
-2.59256e+96
-1.85508e+96
-3.99259e+95
2.29229e+96
7.06133e+96
1.5229e+97
2.92286e+97
5.30249e+97
9.25104e+97
1.58671e+98
2.65899e+98
4.34196e+98
6.88681e+98
1.05555e+99
1.54952e+99
2.14421e+99
2.70912e+99
2.88944e+99
1.87878e+99
-1.98388e+99
-1.19077e+100
-3.38045e+100
-7.81541e+100
-1.62933e+101
-3.18087e+101
-5.92165e+101
-1.06189e+102
-1.84554e+102
-3.12111e+102
-5.15011e+102
-8.30748e+102
-1.31178e+103
-2.02964e+103
-3.07936e+103
-4.58365e+103
-6.69635e+103
-9.6041e+103
-1.35253e+104
-1.87054e+104
-2.54075e+104
-3.38986e+104
-4.44329e+104
-5.72373e+104
-7.25078e+104
-9.04356e+104
-1.11293e+105
-1.35636e+105
-1.64702e+105
-2.01165e+105
-2.50461e+105
-3.23056e+105
-4.38223e+105
-6.30197e+105
-9.58035e+105
-1.52115e+106
-2.48342e+106
-4.11003e+106
-6.823e+106
-1.12835e+107
-1.85119e+107
-3.00613e+107
-4.82619e+107
-7.65631e+107
-1.20001e+108
-1.85831e+108
-2.8436e+108
-4.30039e+108
-6.42843e+108
-9.50004e+108
-1.38812e+109
-2.0057e+109
-2.86601e+109
-4.05046e+109
-5.66202e+109
-7.82896e+109
-1.07083e+110
-1.44888e+110
-1.93932e+110
-2.56791e+110
-3.36374e+110
-4.3589e+110
-5.5878e+110
-7.08607e+110
-8.88919e+110
-1.10306e+111
-1.35394e+111
-1.64379e+111
-1.97388e+111
-2.34419e+111
-2.75317e+111
-3.19743e+111
-3.67147e+111
-4.16737e+111
-4.67437e+111
-5.17817e+111
-5.6596e+111
-6.09223e+111
-6.43885e+111
-6.64777e+111
-6.65355e+111
-6.39221e+111
-5.84129e+111
-5.20827e+111
-3.7771e+111
-2.43965e+111
-8.90913e+110
1.72621e+111
5.76082e+111
1.14571e+112
1.89293e+112
2.83342e+112
3.99081e+112
5.39194e+112
7.06072e+112
9.01378e+112
1.12579e+113
1.37881e+113
1.65859e+113
1.96184e+113
2.28372e+113
2.61789e+113
2.95663e+113
3.29102e+113
3.61138e+113
3.9076e+113
4.16968e+113
4.38825e+113
4.55507e+113
4.66356e+113
4.70911e+113
4.68946e+113
4.60481e+113
4.45787e+113
4.25368e+113
3.99943e+113
3.70398e+113
3.37743e+113
3.03059e+113
2.67438e+113
2.31935e+113
1.97514e+113
1.65011e+113
1.35102e+113
1.08281e+113
8.48508e+112
6.49249e+112
4.84414e+112
3.51899e+112
2.48493e+112
1.70332e+112
1.13257e+112
7.30157e+111
4.77736e+111
1.72708e+111
8.17296e+110
5.05333e+109
8.77335e+108
-1.58676e+109
2.95073e+109
1.6112e+109
4.69734e+108
1.337e+108
9.09557e+107
1.8615e+108
1.10502e+108
-3.12511e+107
-2.3556e+107
3.82284e+105
6.52127e+106
4.61149e+106
-4.20543e+106
7.09297e+105
1.2379e+107
1.74669e+106
1.6319e+106
4.26614e+105
-2.44494e+105
7.53529e+105
1.9857e+106
5.9938e+106
1.62228e+107
2.12173e+107
9.03661e+106
9.37301e+105
1.41277e+107
1.03624e+106
-4.20474e+106
-5.61434e+106
-6.43767e+106
-5.01541e+106
-1.19368e+107
-2.2579e+26
-4.09897e+26
-5.84716e+26
-2.63888e+26
-5.27909e+25
2.20323e+26
7.18161e+27
1.62947e+27
6.54139e+26
7.57397e+26
1.24008e+27
1.98881e+27
3.41485e+27
4.89579e+27
5.25276e+27
7.38678e+27
1.19691e+28
2.11127e+28
3.46886e+28
5.52009e+28
8.23179e+28
9.65895e+28
8.95605e+28
1.16838e+29
1.11678e+29
2.28651e+29
3.24053e+29
5.56159e+29
1.08806e+30
1.93592e+30
3.3762e+30
5.90864e+30
9.2399e+30
1.31599e+31
1.87012e+31
2.88862e+31
4.78157e+31
8.34428e+31
1.45773e+32
2.31102e+32
3.52009e+32
5.34077e+32
8.45566e+32
1.41751e+33
2.36141e+33
3.88392e+33
6.23541e+33
1.07235e+34
1.9828e+34
3.5272e+34
5.94825e+34
9.29364e+34
1.364e+35
1.75693e+35
2.12097e+35
2.30169e+35
2.30727e+35
3.12548e+35
7.84283e+35
2.79569e+36
9.05544e+36
2.5107e+37
5.85114e+37
1.16142e+38
1.96075e+38
1.21375e+38
-4.15364e+39
-3.15173e+39
-3.10581e+39
-5.03525e+39
-1.70085e+40
-9.18667e+40
-1.16954e+41
-8.01173e+40
1.94777e+40
9.03964e+40
2.90458e+40
-1.48141e+40
4.1671e+40
-1.04805e+42
-1.67861e+38
-4.2737e+41
-2.62827e+42
-1.06409e+43
-3.83543e+43
-1.3027e+44
1.00516e+44
-1.61936e+43
-3.85365e+43
1.8498e+43
-1.23772e+42
2.76598e+42
-3.73165e+43
-1.49644e+43
-5.64508e+42
1.12642e+43
4.65651e+43
1.60709e+43
7.49031e+42
4.93894e+42
6.86566e+42
-1.4054e+43
-4.36174e+44
-6.74385e+43
-8.87607e+43
-7.99849e+43
6.56885e+45
8.26292e+42
-2.87848e+43
3.73417e+42
4.85655e+42
1.29914e+43
6.93463e+43
1.50243e+44
1.764e+44
9.7242e+44
1.12535e+45
-9.02407e+46
-9.03204e+46
-3.58612e+46
-2.35792e+46
-3.04671e+47
5.3065e+45
3.0551e+46
-1.39502e+46
2.80801e+45
-4.88791e+46
-5.3951e+46
-1.50469e+48
-1.59401e+47
7.73311e+49
5.94625e+49
8.84556e+48
-3.72733e+48
-1.59254e+49
-3.35666e+49
-1.14405e+50
-1.29891e+50
3.80275e+49
-8.67526e+50
9.43928e+49
-1.68813e+50
-2.01778e+50
-1.93113e+50
-1.75644e+50
-1.32672e+50
-5.56711e+49
5.95374e+49
1.40637e+50
1.85825e+50
1.29138e+50
-4.28223e+49
-1.82194e+50
8.0182e+50
1.61217e+51
5.53312e+51
7.78958e+51
3.22609e+52
4.28636e+52
8.30623e+52
1.77583e+53
3.97659e+53
8.88029e+53
2.05766e+54
5.73169e+54
5.65268e+54
7.01124e+54
1.27003e+55
2.47933e+55
5.82569e+55
1.63322e+56
1.5884e+56
6.95346e+56
2.55257e+55
-1.76958e+56
-2.77766e+56
-4.93603e+56
-9.32392e+56
-1.71242e+57
-2.98379e+57
-5.11771e+57
-8.33673e+57
-1.3124e+58
-2.34455e+58
-5.97631e+58
-1.47636e+59
-3.15743e+59
-1.54674e+59
8.00304e+57
1.262e+60
-3.75722e+61
6.4292e+61
1.06511e+62
3.81825e+61
3.35947e+60
-1.94322e+60
3.03394e+60
3.44355e+60
4.85203e+60
4.47726e+60
-3.62582e+60
-2.03671e+61
-4.35298e+61
-6.39782e+61
5.49982e+62
7.90439e+62
1.03629e+63
1.43278e+63
2.09617e+63
3.30806e+63
5.66508e+63
1.03175e+64
2.08755e+64
6.51895e+64
1.41236e+65
5.56767e+65
5.39236e+66
5.8703e+65
-9.75664e+65
-6.26908e+66
-3.21938e+67
4.10688e+67
1.13591e+68
-7.55709e+66
-8.87546e+66
-1.82098e+66
3.50583e+67
7.92925e+67
2.05078e+68
4.75277e+68
1.12591e+69
3.35218e+69
7.3789e+69
1.32355e+70
1.7928e+70
2.7677e+70
9.58485e+70
9.72711e+70
3.37316e+70
-6.37773e+70
-4.95374e+71
2.44703e+71
8.17137e+70
3.05517e+71
-6.45899e+70
1.14093e+72
-3.29846e+71
-1.42363e+71
-8.82128e+72
-1.48829e+72
1.66104e+72
4.95649e+72
3.25194e+72
-1.22893e+71
-6.28865e+71
-5.1065e+71
-1.06084e+72
-3.24435e+72
-1.2212e+73
-2.47699e+73
-2.84542e+73
-3.46145e+73
-2.19389e+79
-5.65498e+78
-1.55001e+78
-4.77566e+77
-1.30424e+77
-3.52834e+76
-9.79955e+75
-2.0593e+75
3.61683e+73
9.11198e+74
1.56041e+75
2.39725e+75
4.43118e+75
7.66397e+75
1.34279e+76
4.09275e+76
1.17539e+77
1.4581e+77
-3.51673e+77
3.31373e+78
6.17396e+77
2.12615e+76
1.32645e+77
-2.93456e+77
-9.43912e+77
-1.3597e+78
-1.88791e+78
-2.63818e+78
-3.08504e+78
-3.54741e+78
-4.60065e+78
-6.06118e+78
-6.68751e+78
-3.26365e+78
-1.7633e+78
-1.33552e+78
-2.85349e+79
-8.8332e+79
-1.15145e+80
3.21683e+81
1.21088e+81
4.85135e+80
6.25073e+80
6.54393e+80
1.17934e+80
4.52813e+79
1.59066e+80
2.4367e+79
-3.94404e+80
-1.45663e+81
-1.15785e+81
-1.0787e+81
-7.72422e+80
-2.33804e+80
1.87317e+80
-2.09829e+80
1.43485e+81
-9.77151e+80
-2.35354e+81
1.50775e+81
-1.76961e+80
3.70776e+81
1.86572e+82
4.52399e+81
8.45387e+79
3.11906e+81
2.10964e+82
2.39654e+82
-1.04185e+82
6.12972e+82
9.41366e+82
7.46874e+82
5.59914e+82
1.86698e+82
5.63765e+81
-7.4614e+82
4.32751e+83
-1.06077e+84
-2.2677e+84
-1.05199e+84
-6.21033e+83
4.76171e+83
2.10303e+84
-4.95295e+84
-3.75246e+84
3.99851e+84
-1.14666e+85
-3.14567e+84
2.57558e+85
1.74316e+85
-2.55149e+84
-9.82009e+84
2.77476e+84
6.82863e+85
2.89117e+86
9.12552e+86
2.40469e+87
5.59091e+87
1.1995e+88
2.45392e+88
4.87344e+88
9.421e+88
1.78855e+89
3.3494e+89
6.18444e+89
1.12909e+90
2.03559e+90
3.62283e+90
6.36401e+90
1.10295e+91
1.88523e+91
3.17698e+91
5.27688e+91
8.63644e+91
1.39243e+92
2.21098e+92
3.45664e+92
5.3195e+92
8.05585e+92
1.20016e+93
1.75828e+93
2.53193e+93
3.58162e+93
4.97387e+93
6.7775e+93
9.05997e+93
1.18837e+94
1.52908e+94
1.93066e+94
2.39248e+94
2.8898e+94
3.44175e+94
3.98929e+94
4.51065e+94
4.92805e+94
5.27895e+94
5.47396e+94
5.4653e+94
5.21436e+94
4.69131e+94
3.87709e+94
2.76208e+94
1.33699e+94
-4.12006e+93
-2.53351e+94
-5.21742e+94
-8.86028e+94
-1.36625e+95
-1.47158e+95
-1.62206e+94
3.85759e+95
1.33936e+96
3.28345e+96
6.93476e+96
1.48665e+97
2.78547e+97
5.08492e+97
9.38515e+97
1.7321e+98
3.16773e+98
5.73126e+98
1.02503e+99
1.81026e+99
3.15931e+99
5.44648e+99
9.27212e+99
1.55847e+100
2.58581e+100
4.23453e+100
6.84306e+100
1.09108e+101
1.71609e+101
2.66206e+101
4.07197e+101
6.14053e+101
9.12702e+101
1.33684e+102
1.92917e+102
2.74232e+102
3.83934e+102
5.29356e+102
7.18783e+102
9.61364e+102
1.26711e+103
1.64722e+103
2.11517e+103
2.68934e+103
3.39841e+103
4.29153e+103
5.45666e+103
7.05197e+103
9.35865e+103
1.28674e+104
1.84172e+104
2.74128e+104
4.21564e+104
6.63447e+104
1.05806e+105
1.69594e+105
2.71605e+105
4.32939e+105
6.85306e+105
1.07586e+106
1.67395e+106
2.58046e+106
3.94041e+106
5.95989e+106
8.92822e+106
1.32466e+107
1.9464e+107
2.83222e+107
4.08096e+107
5.82242e+107
8.22457e+107
1.15014e+108
1.59209e+108
2.18131e+108
2.95765e+108
3.96823e+108
5.26754e+108
6.91691e+108
8.98336e+108
1.15374e+109
1.46499e+109
1.83876e+109
2.28071e+109
2.79479e+109
3.38244e+109
4.0416e+109
4.7658e+109
5.54319e+109
6.35568e+109
7.17823e+109
7.97831e+109
8.71568e+109
9.34223e+109
9.8019e+109
1.00303e+110
9.95327e+109
9.48436e+109
8.51925e+109
6.92772e+109
4.54371e+109
1.15901e+109
-3.46378e+109
-9.52563e+109
-1.70261e+110
-2.54985e+110
-3.38276e+110
-3.3389e+110
-6.20304e+110
-8.07265e+110
-1.03016e+111
-1.37603e+111
-1.79235e+111
-2.25151e+111
-2.74266e+111
-3.27152e+111
-3.84079e+111
-4.44085e+111
-5.05044e+111
-5.64055e+111
-6.17755e+111
-6.62493e+111
-6.94484e+111
-7.09983e+111
-7.05514e+111
-6.78127e+111
-6.25671e+111
-5.47035e+111
-4.42346e+111
-3.13081e+111
-1.62102e+111
6.42347e+109
1.87187e+111
3.73998e+111
5.60106e+111
7.38584e+111
9.02716e+111
1.04639e+112
1.16446e+112
1.25303e+112
1.30965e+112
1.33345e+112
1.32511e+112
1.28679e+112
1.22192e+112
1.13493e+112
1.031e+112
9.15711e+111
7.94705e+111
6.73393e+111
5.56623e+111
4.48402e+111
3.51675e+111
2.68246e+111
1.99013e+111
1.44005e+111
1.03056e+111
7.63352e+110
7.50457e+110
4.28422e+110
7.21075e+109
2.7424e+109
8.23995e+108
-5.33238e+108
5.61721e+108
6.20977e+108
3.388e+108
1.63963e+108
1.42022e+108
1.00429e+106
-1.48233e+107
-1.88122e+107
-7.42683e+106
-1.25714e+106
-7.96671e+105
-4.5136e+106
-8.26993e+106
-7.46247e+106
1.74073e+106
1.84819e+106
7.55773e+105
-8.91489e+105
6.85179e+105
1.13048e+106
2.12753e+106
5.28627e+106
1.45016e+107
9.24299e+106
1.16638e+106
5.23814e+106
3.52423e+106
1.75504e+106
7.25428e+105
4.16719e+105
7.61582e+105
1.81817e+106
-1.28139e+26
-2.57781e+27
-8.71277e+26
-3.33795e+26
-2.24719e+26
-9.98626e+24
2.01025e+27
1.13441e+27
7.94274e+26
9.9464e+26
1.53267e+27
2.66897e+27
5.46434e+27
9.28554e+27
9.72615e+27
1.21674e+28
1.56222e+28
2.30066e+28
3.15889e+28
2.86597e+28
4.29583e+28
8.11924e+28
8.32122e+28
1.32509e+29
2.8643e+29
4.41152e+29
2.43176e+29
4.27007e+29
7.02032e+29
1.16006e+30
1.95227e+30
3.04284e+30
6.90384e+30
1.13474e+31
1.59015e+31
2.18675e+31
3.03744e+31
4.76745e+31
8.3429e+31
1.25671e+32
1.74901e+32
1.92887e+32
1.46916e+32
1.15372e+32
4.53748e+31
1.20358e+32
6.27211e+32
4.00323e+33
1.58239e+34
2.9376e+34
4.31707e+34
7.21452e+34
9.62618e+34
9.62742e+34
8.73462e+34
1.87669e+33
-2.1935e+35
-5.36988e+35
-9.42323e+35
-7.49075e+35
9.67249e+35
5.99082e+36
1.53511e+37
3.45433e+37
1.25431e+38
-5.62347e+38
5.80452e+38
-1.45561e+39
-3.18714e+39
1.38498e+38
-2.62259e+39
-1.74517e+40
-2.85514e+40
-1.39087e+39
2.99522e+39
-7.1108e+39
-4.31239e+39
-1.91497e+40
-3.82055e+39
-4.96636e+41
-5.69428e+41
-1.28412e+42
-3.58797e+42
-9.63941e+42
-1.92049e+43
-8.07523e+43
7.8292e+43
1.10989e+43
1.83783e+43
7.02443e+43
5.81378e+43
3.7789e+43
-2.17146e+41
-7.05227e+42
-4.0954e+42
2.51588e+42
1.17143e+43
6.88021e+42
2.80605e+42
2.417e+42
3.10756e+42
-6.92774e+42
-7.73034e+43
-8.37477e+42
-3.86576e+43
-3.45546e+43
2.25512e+45
5.89136e+44
1.4756e+44
7.38223e+44
2.47745e+44
2.65994e+43
-6.58768e+42
-1.51009e+44
-7.90322e+44
-2.40565e+45
-3.47051e+45
-2.60365e+46
-3.77719e+46
-2.46804e+46
-1.92642e+46
-3.0659e+47
-7.23534e+46
-2.24547e+46
-1.95185e+46
3.54734e+46
7.1565e+45
-2.87416e+45
-6.96616e+47
-5.61718e+48
7.66048e+49
4.95753e+49
1.31526e+49
3.98975e+48
9.0936e+48
3.03773e+51
-2.28413e+51
1.12881e+51
-8.08798e+50
-1.5192e+51
-2.82848e+50
-8.54139e+49
-1.01551e+50
-1.44636e+50
-1.88759e+50
-2.27142e+50
-2.42314e+50
-2.18162e+50
-1.54779e+50
-6.23417e+49
1.54788e+49
-3.09165e+49
-7.04383e+49
1.50735e+50
1.48618e+50
1.65426e+51
1.88253e+51
1.86921e+52
1.20846e+52
1.43449e+52
2.10839e+52
3.68725e+52
8.15296e+52
1.88726e+53
3.81323e+53
1.03321e+54
1.12388e+54
1.37416e+54
3.62567e+54
1.08429e+55
8.54188e+54
4.17759e+54
2.46982e+56
2.54154e+56
6.23476e+55
-7.53815e+55
-9.42395e+55
-1.67729e+58
-5.53195e+57
-3.3841e+57
-4.11482e+57
-6.36326e+57
-1.02614e+58
-1.7144e+58
-3.51714e+58
-7.37112e+58
-1.27612e+59
-1.53193e+59
-2.14269e+59
1.76338e+60
-3.27545e+61
9.42012e+61
1.50852e+62
7.69912e+61
2.05171e+61
3.84031e+60
3.2275e+60
5.9773e+60
1.02027e+61
1.61502e+61
2.38444e+61
3.62493e+61
5.97576e+61
9.56684e+61
3.59273e+62
6.21005e+62
9.12734e+62
1.26111e+63
1.6549e+63
2.11593e+63
2.83413e+63
4.63043e+63
1.01292e+64
3.38759e+64
-1.26071e+65
-4.46966e+65
2.22212e+66
1.73966e+66
3.00539e+66
9.98015e+66
2.95509e+67
1.37356e+68
4.50283e+68
1.22927e+68
-3.0909e+67
-3.40654e+67
-6.5695e+67
-2.15597e+68
-1.72352e+68
4.85902e+67
1.5456e+68
8.36969e+68
3.11942e+69
9.47177e+69
1.08654e+70
-1.12146e+70
-2.18259e+70
4.22958e+70
3.59838e+70
-3.01773e+70
-1.13886e+71
3.58109e+71
5.74409e+71
3.79685e+71
2.07579e+71
3.70837e+71
4.0689e+69
-2.17434e+69
-2.58024e+72
-1.2811e+72
2.15802e+71
-8.17637e+72
-5.97e+71
-9.33716e+71
-3.07544e+71
6.69691e+71
9.78356e+71
1.30245e+72
9.36586e+71
-1.95663e+72
-1.54948e+73
-6.3152e+72
-5.82115e+78
-3.15388e+78
-1.25945e+78
-4.67415e+77
-1.60813e+77
-5.27295e+76
-1.67115e+76
-4.77918e+75
-8.87318e+74
3.86902e+74
7.47219e+74
7.17078e+74
1.34637e+75
9.80124e+74
2.1671e+75
5.38524e+75
4.02526e+76
7.88061e+76
6.08378e+76
8.99199e+77
3.21354e+77
3.66377e+77
1.59097e+77
-3.40049e+78
-1.65103e+78
-1.14249e+78
-1.11543e+78
-1.81727e+78
-2.71339e+78
-3.24206e+78
-3.66158e+78
-4.24379e+78
-4.74778e+78
-3.93293e+78
-8.64899e+77
7.54262e+78
3.6386e+79
5.19109e+80
-4.59891e+80
2.34135e+81
1.22701e+81
2.11653e+81
-1.24471e+82
-6.48681e+81
-1.4417e+81
2.28546e+81
7.03486e+79
-2.10439e+80
-2.93536e+79
-1.37044e+80
-2.06655e+80
-5.77712e+80
-6.51743e+80
-4.45141e+80
-7.29262e+79
1.41091e+80
1.73005e+80
2.53778e+80
-1.47678e+81
-3.09054e+81
-6.25084e+81
-5.34489e+81
4.22064e+81
3.78997e+81
1.47584e+81
-3.59368e+81
1.08565e+82
1.34054e+82
2.21015e+82
7.72216e+82
1.18781e+83
1.22017e+83
9.59135e+82
6.50766e+82
-1.08813e+83
-1.03769e+83
3.48371e+83
-4.52508e+83
-2.91749e+84
-1.69919e+84
3.65121e+83
-4.61768e+83
-1.26497e+84
-1.41458e+85
-6.68572e+84
-6.50232e+85
-2.13438e+85
-5.85998e+84
5.3808e+84
4.88751e+84
-3.42801e+84
-1.1424e+85
-1.65818e+85
-1.89345e+85
-4.01128e+84
8.11628e+85
3.59946e+86
7.76582e+86
2.20518e+87
5.37977e+87
1.08266e+88
2.31575e+88
5.09546e+88
9.82459e+88
1.92638e+89
3.65434e+89
6.87191e+89
1.28261e+90
2.37008e+90
4.31663e+90
7.74087e+90
1.36707e+91
2.37771e+91
4.07256e+91
6.86881e+91
1.14068e+92
1.86497e+92
3.00163e+92
4.75515e+92
7.41372e+92
1.1374e+93
1.71686e+93
2.5495e+93
3.72411e+93
5.35019e+93
7.55678e+93
1.04868e+94
1.42934e+94
1.91507e+94
2.52098e+94
3.26833e+94
4.17117e+94
5.23197e+94
6.40636e+94
7.78239e+94
9.2547e+94
1.08009e+95
1.23777e+95
1.39285e+95
1.53871e+95
1.66806e+95
1.77361e+95
1.8474e+95
1.88068e+95
1.86161e+95
1.77105e+95
1.57251e+95
1.08223e+95
7.65102e+94
5.56775e+94
3.89612e+94
2.61831e+95
-2.28563e+95
1.19454e+96
3.17926e+96
7.12371e+96
1.36591e+97
2.71313e+97
5.28636e+97
1.01823e+98
1.90247e+98
3.56511e+98
6.61935e+98
1.20992e+99
2.1791e+99
3.87155e+99
6.78556e+99
1.17315e+100
2.00072e+100
3.36574e+100
5.58507e+100
9.14141e+100
1.47574e+101
2.34955e+101
3.68896e+101
5.71113e+101
8.71759e+101
1.31184e+102
1.94593e+102
2.8451e+102
4.09977e+102
5.82233e+102
8.14921e+102
1.12425e+103
1.5291e+103
2.05127e+103
2.71603e+103
3.55361e+103
4.60242e+103
5.91589e+103
7.57534e+103
9.7136e+103
1.25564e+104
1.64927e+104
2.21902e+104
3.07811e+104
4.41525e+104
6.53948e+104
9.94905e+104
1.54364e+105
2.4247e+105
3.83158e+105
6.06171e+105
9.56718e+105
1.50277e+106
2.34538e+106
3.63318e+106
5.58226e+106
8.5033e+106
1.28378e+107
1.9206e+107
2.84685e+107
4.18053e+107
6.08138e+107
8.76292e+107
1.25068e+108
1.76793e+108
2.47504e+108
3.43144e+108
4.71108e+108
6.40455e+108
8.62097e+108
1.14894e+109
1.51594e+109
1.98009e+109
2.56022e+109
3.27665e+109
4.15059e+109
5.20337e+109
6.45534e+109
7.92458e+109
9.62532e+109
1.15662e+110
1.37483e+110
1.61634e+110
1.87916e+110
2.15999e+110
2.45397e+110
2.75449e+110
3.05287e+110
3.33795e+110
3.59535e+110
3.80638e+110
3.94639e+110
3.98294e+110
3.87517e+110
3.57828e+110
3.05976e+110
2.3191e+110
1.64364e+110
-8.11567e+108
-1.96871e+110
-3.8153e+110
-6.66017e+110
-1.08399e+111
-1.63745e+111
-2.32095e+111
-3.14104e+111
-4.11366e+111
-5.25413e+111
-6.57084e+111
-8.06336e+111
-9.72239e+111
-1.15296e+112
-1.34573e+112
-1.54686e+112
-1.75177e+112
-1.9551e+112
-2.15092e+112
-2.33297e+112
-2.49494e+112
-2.63086e+112
-2.73539e+112
-2.80415e+112
-2.83401e+112
-2.82329e+112
-2.77187e+112
-2.68124e+112
-2.55444e+112
-2.39588e+112
-2.21115e+112
-2.00668e+112
-1.78938e+112
-1.56632e+112
-1.34431e+112
-1.12963e+112
-9.27726e+111
-7.42982e+111
-5.78617e+111
-4.366e+111
-3.17663e+111
-2.2137e+111
-1.46272e+111
-9.0115e+110
-5.01045e+110
-2.31099e+110
-7.07134e+109
4.17632e+109
1.08798e+110
8.61179e+109
3.61598e+110
3.95245e+110
2.08603e+110
8.63882e+109
3.31428e+109
1.16109e+109
3.33172e+108
3.25251e+108
2.73053e+108
1.77453e+108
1.22516e+108
3.94164e+107
2.4731e+107
2.20454e+105
-1.93403e+106
-1.24073e+106
-2.47631e+106
-3.19067e+106
-5.84812e+106
-3.50158e+106
1.1369e+106
1.31652e+106
5.60615e+105
-1.79557e+105
3.64176e+105
2.87922e+105
2.45098e+105
2.32336e+105
4.21971e+105
2.86592e+106
1.31841e+106
1.33925e+106
1.38139e+106
1.16468e+106
7.71234e+105
5.42161e+105
3.53265e+105
7.74248e+105
-1.58059e+25
-9.02179e+26
-4.63477e+26
-2.48995e+26
-1.46859e+26
-3.03723e+25
6.10868e+26
6.63534e+26
8.87056e+26
1.50654e+27
2.188e+27
3.7454e+27
7.2272e+27
1.29896e+28
2.01225e+28
2.81982e+28
3.54046e+28
5.06995e+28
6.76742e+28
8.99928e+28
1.27682e+29
9.44857e+28
-2.58397e+29
1.10493e+29
-2.98502e+29
4.56785e+27
1.23223e+29
2.4931e+29
3.91281e+29
6.45627e+29
1.12393e+30
1.53123e+30
3.88976e+30
7.18301e+30
6.13789e+30
9.23978e+30
2.03846e+31
2.98088e+31
3.4585e+31
-5.66008e+32
-1.3494e+33
-2.87089e+33
-6.03957e+33
-1.21857e+34
-2.41967e+34
-4.703e+34
-8.90721e+34
-1.63589e+35
-2.36396e+35
-1.50084e+35
-1.07591e+35
-1.88263e+35
-3.2437e+35
-6.84843e+35
-1.32872e+36
-2.60254e+36
-5.18971e+36
-1.00158e+37
-1.85198e+37
-3.39432e+37
-5.56715e+37
-7.52516e+37
-6.50248e+37
-1.6409e+37
2.86114e+37
-2.40404e+38
-3.36391e+38
-7.96662e+38
-1.54756e+39
-1.01046e+39
-1.39854e+39
-3.13434e+39
-9.82615e+38
1.2389e+40
1.09803e+40
-1.47658e+41
-1.15001e+41
1.60587e+41
-1.17779e+41
1.27396e+41
-2.13109e+41
-1.22493e+42
-3.43304e+42
-6.91828e+42
-6.52336e+42
-2.30922e+43
1.78071e+43
3.52724e+43
6.41371e+43
5.54027e+43
1.05835e+44
8.45142e+43
3.6861e+43
1.19041e+43
2.85827e+42
8.12369e+41
9.23346e+41
-4.27101e+41
-1.08323e+42
-1.15741e+42
-6.92844e+41
-4.38643e+42
-4.41758e+43
-2.33009e+43
-4.7127e+43
-3.40517e+43
5.80857e+44
3.7771e+44
4.90763e+44
1.83352e+45
7.12012e+43
7.46654e+45
2.0335e+45
3.25408e+45
1.45879e+45
1.99413e+45
-4.69156e+46
-2.20766e+46
-2.39202e+46
-2.1342e+46
-1.76863e+46
-5.1522e+47
-1.60011e+47
-5.10326e+46
-3.58307e+46
-1.14596e+47
-1.99032e+48
-1.34421e+47
-1.46875e+47
-2.88708e+48
1.55492e+49
2.50143e+49
1.66348e+49
3.28258e+49
1.90116e+49
2.08233e+51
-4.41643e+49
3.83808e+50
-1.3366e+50
-7.82998e+50
-1.4581e+50
-7.07055e+49
-5.54591e+49
-7.02051e+49
-9.43858e+49
-1.4037e+50
-1.72203e+50
-2.7414e+50
-6.68271e+49
-2.31145e+49
5.37353e+49
2.61455e+48
9.50879e+48
7.46503e+49
2.19977e+50
1.86939e+51
-1.28033e+51
3.31862e+51
3.33593e+51
6.01034e+51
6.64803e+51
7.87885e+51
1.84367e+52
3.01905e+52
4.14911e+52
-2.54824e+52
-4.13338e+53
-1.19498e+54
-1.00305e+54
-4.87323e+53
1.42421e+54
3.86873e+54
-2.44987e+55
1.31602e+56
5.46442e+55
-4.43963e+55
-1.14516e+56
-4.44093e+57
7.43084e+57
6.94167e+56
-1.12876e+57
-1.90366e+57
-2.82961e+57
-4.1746e+57
-6.97413e+57
-1.03635e+58
-1.20816e+58
4.24028e+57
-7.30592e+57
1.18336e+60
-1.30347e+61
3.19031e+61
8.12032e+61
6.27968e+61
2.65632e+61
9.14396e+60
4.86122e+60
6.18635e+60
1.03623e+61
1.81038e+61
3.2409e+61
5.96634e+61
1.07626e+62
1.89487e+62
3.89136e+62
6.99102e+62
1.13263e+63
1.674e+63
2.22679e+63
2.65325e+63
2.89799e+63
3.34204e+63
4.45893e+63
1.22515e+64
-2.93661e+64
-6.63009e+64
1.05069e+66
2.80443e+65
1.0528e+66
3.17702e+66
1.10113e+67
4.55719e+67
1.29398e+68
6.56971e+67
-1.53718e+67
-6.63599e+67
-1.30355e+68
-1.86745e+68
-2.68473e+68
-2.75024e+68
-2.8798e+68
8.78536e+67
5.23953e+68
4.95544e+69
1.90901e+70
1.91768e+70
-3.36206e+69
-4.57163e+71
-5.88768e+70
-4.44231e+70
6.2659e+68
-5.47877e+71
-1.05173e+72
-9.10433e+71
6.14685e+71
2.3165e+71
8.08423e+70
6.39784e+70
-6.52772e+71
-4.66993e+71
-1.24583e+71
-2.75526e+72
-4.35715e+71
-1.04715e+71
2.6712e+70
8.09304e+71
1.45294e+72
2.20978e+72
3.59117e+72
5.89471e+72
5.13511e+72
8.87809e+72
-1.53845e+78
-1.24545e+78
-6.6493e+77
-3.01965e+77
-1.23805e+77
-4.72813e+76
-1.69814e+76
-5.38824e+75
-9.31464e+74
6.18393e+74
8.57056e+74
-9.5168e+73
7.96957e+75
-3.50981e+75
-1.11697e+76
-2.34396e+76
-3.35018e+76
-7.03998e+76
-4.64793e+76
1.85173e+77
3.824e+76
5.01174e+75
-3.1247e+77
-1.3221e+78
-1.07087e+78
-1.32076e+78
-1.74925e+78
-2.49534e+78
-3.32168e+78
-3.78414e+78
-3.83875e+78
-3.72563e+78
-3.57606e+78
-1.25138e+78
-1.80643e+78
-4.7036e+78
2.98029e+79
1.4246e+80
-2.32155e+80
-5.48789e+80
5.14385e+79
1.09524e+81
-6.79334e+81
-5.90047e+81
-2.38573e+81
2.43693e+79
-5.10135e+80
-4.79432e+80
-2.59892e+80
-2.30473e+80
8.59177e+79
-2.69965e+80
-4.78452e+80
-4.00344e+80
-2.11584e+80
-5.91601e+79
-2.0579e+79
3.68019e+80
-1.63118e+81
-3.75617e+81
-7.721e+81
-1.03029e+82
-2.74356e+81
1.10221e+81
1.14741e+81
-5.82149e+80
6.44619e+81
9.15443e+81
1.04011e+83
1.09143e+83
1.50895e+83
1.83096e+83
1.68472e+83
1.16483e+83
-8.3009e+82
-4.20094e+82
-1.89156e+83
-2.00744e+83
-3.65238e+83
9.03645e+81
4.80573e+83
-1.4007e+84
-1.08961e+84
-7.68962e+84
-4.4394e+84
-1.92526e+85
-1.05472e+85
-6.00732e+84
2.48035e+83
1.96405e+84
5.20907e+83
-2.31703e+84
-3.9228e+84
-3.09844e+84
3.19672e+84
2.76876e+85
1.00287e+86
2.02042e+86
4.8673e+86
9.68371e+86
1.56876e+87
2.79366e+87
-8.18816e+87
-2.12467e+88
4.17682e+87
1.82688e+89
4.11116e+89
7.891e+89
1.44119e+90
2.58765e+90
4.59412e+90
8.05461e+90
1.39316e+91
2.37615e+91
3.99482e+91
6.61729e+91
1.07938e+92
1.73237e+92
2.73306e+92
4.23372e+92
6.43433e+92
9.59652e+92
1.40822e+93
2.04528e+93
2.96585e+93
4.3183e+93
6.25273e+93
8.67186e+93
1.16801e+94
1.58454e+94
2.54121e+94
2.82875e+94
3.35902e+94
3.66852e+94
4.92929e+94
6.08652e+94
7.25908e+94
8.45018e+94
9.64806e+94
1.08265e+95
1.19313e+95
1.28851e+95
1.36497e+95
1.42307e+95
1.47913e+95
1.63636e+95
-2.76177e+95
3.22906e+95
1.23183e+95
3.3996e+94
3.48175e+94
1.74787e+95
6.5327e+95
2.04937e+96
1.15364e+96
1.4764e+96
3.54665e+96
9.38315e+96
1.72062e+97
5.29341e+97
1.13376e+98
2.17473e+98
4.02924e+98
7.28396e+98
1.30237e+99
2.29944e+99
4.00826e+99
6.89972e+99
1.17282e+100
1.9684e+100
3.26168e+100
5.33547e+100
8.61519e+100
1.37299e+101
2.15937e+101
3.35113e+101
5.13101e+101
7.75007e+101
1.15464e+102
1.69658e+102
2.45839e+102
3.5128e+102
4.9497e+102
6.87796e+102
9.42715e+102
1.27497e+103
1.70251e+103
2.24687e+103
2.93511e+103
3.80365e+103
4.90573e+103
6.32495e+103
8.1991e+103
1.07607e+104
1.44038e+104
1.9792e+104
2.80283e+104
4.09194e+104
6.13828e+104
9.40688e+104
1.46301e+105
2.29485e+105
3.61187e+105
5.68177e+105
8.90807e+105
1.38926e+106
2.15231e+106
3.30953e+106
5.04792e+106
7.63441e+106
1.14457e+107
1.70071e+107
2.50431e+107
3.654e+107
5.28247e+107
7.56592e+107
1.07353e+108
1.50893e+108
2.10085e+108
2.89713e+108
3.95695e+108
5.35237e+108
7.16964e+108
9.51013e+108
1.24906e+109
1.62429e+109
2.09118e+109
2.66525e+109
3.36258e+109
4.19914e+109
5.18996e+109
6.34814e+109
7.6836e+109
9.20175e+109
1.0902e+110
1.27765e+110
1.48081e+110
1.69692e+110
1.92201e+110
2.15066e+110
2.37581e+110
2.58837e+110
2.77665e+110
2.92549e+110
3.01482e+110
3.01713e+110
2.89367e+110
2.59212e+110
2.06172e+110
1.43605e+110
6.41926e+109
-1.30653e+109
-1.58472e+110
-3.35906e+110
-5.84827e+110
-9.28507e+110
-1.36929e+111
-1.90945e+111
-2.55756e+111
-3.3253e+111
-4.22216e+111
-5.25249e+111
-6.41467e+111
-7.70066e+111
-9.09573e+111
-1.05782e+112
-1.21194e+112
-1.36843e+112
-1.52321e+112
-1.6718e+112
-1.80952e+112
-1.93167e+112
-2.03383e+112
-2.11208e+112
-2.16323e+112
-2.18502e+112