/*--------------------------------*- C++ -*----------------------------------*\
  =========                 |
  \\      /  F ield         | OpenFOAM: The Open Source CFD Toolbox
   \\    /   O peration     | Website:  https://openfoam.org
    \\  /    A nd           | Version:  9
     \\/     M anipulation  |
\*---------------------------------------------------------------------------*/
FoamFile
{
    format      ascii;
    class       volScalarField;
    location    "1";
    object      f_8;
}
// * * * * * * * * * * * * * * * * * * * * * * * * * * * * * * * * * * * * * //

dimensions      [1 -3 0 0 0 0 0];

internalField   nonuniform List<scalar> 
120000
(
-7.12533e+25
-8.07133e+26
-2.05378e+27
-3.24295e+27
-2.31952e+27
-9.31666e+26
-1.38908e+27
-8.25546e+26
-5.41289e+26
-6.84659e+26
-1.17822e+27
-2.02804e+27
-1.36949e+27
-3.52524e+27
-5.48975e+27
-8.71691e+27
-1.40582e+28
-2.23396e+28
-3.44382e+28
-5.22423e+28
-7.75949e+28
-7.64241e+28
-9.02479e+28
-1.35194e+29
8.88443e+28
1.64193e+29
2.25699e+29
-1.45499e+29
-2.53639e+29
-1.55826e+29
5.54522e+29
1.05017e+30
-3.1987e+29
1.97853e+30
1.1252e+31
3.1093e+31
5.51094e+31
7.04829e+31
9.29537e+31
2.12505e+32
5.2182e+32
1.08541e+33
2.12949e+33
3.81811e+33
6.55766e+33
1.03557e+34
1.48626e+34
1.78435e+34
1.95041e+34
3.04013e+34
6.31023e+34
1.29848e+35
2.49715e+35
5.12388e+35
9.7983e+35
1.75313e+36
2.92939e+36
4.50487e+36
6.40793e+36
8.08422e+36
8.89867e+36
1.0818e+37
2.34211e+37
8.28755e+37
1.11551e+39
-3.05182e+39
3.17194e+40
1.64485e+40
7.79005e+39
9.34135e+39
-1.73696e+41
-4.88568e+40
-1.50614e+41
-6.30346e+40
-2.28959e+40
1.48377e+41
7.05071e+40
-1.27492e+40
-2.21415e+42
-4.91247e+41
1.98589e+42
7.73664e+42
3.02991e+43
1.2069e+44
4.97214e+44
2.06735e+45
5.48239e+45
-7.91493e+44
-2.50184e+44
-7.68628e+43
-2.11004e+44
-1.12299e+44
-3.55842e+43
-3.01232e+42
9.64354e+42
8.32605e+42
5.83112e+42
1.95369e+42
7.89306e+40
-1.4695e+42
-6.45766e+41
1.04421e+43
2.54353e+43
-1.34107e+45
-1.156e+45
-7.15057e+44
9.84609e+43
7.64558e+43
5.81107e+43
5.64273e+43
2.76804e+43
8.12486e+43
9.01251e+43
1.19784e+44
2.90811e+44
-3.5004e+44
1.72879e+45
5.02366e+45
2.6304e+46
2.12181e+46
4.23136e+46
-3.08431e+48
-1.22932e+48
1.02743e+47
3.64643e+47
1.54214e+47
6.9595e+47
-1.74727e+48
-6.17747e+47
-5.84733e+47
2.58931e+48
2.13697e+48
3.50288e+48
7.70499e+48
1.51873e+49
4.21609e+49
7.35882e+49
-1.67057e+50
-3.05036e+50
3.2103e+50
1.69639e+50
-3.58185e+51
-7.87552e+51
-1.25441e+52
-1.71361e+52
-2.07138e+52
-2.18508e+52
-1.91934e+52
-1.17507e+52
-3.19594e+51
-9.85576e+50
-1.07214e+50
-5.51841e+50
-1.21595e+51
-3.4974e+51
-9.61973e+50
-1.89031e+51
-1.63812e+52
-3.48242e+52
-7.74227e+52
-1.7501e+53
-3.76016e+53
-7.33695e+53
-1.64389e+54
-1.86261e+54
-2.50061e+54
-5.75251e+54
-1.40128e+55
-2.72025e+55
-8.4935e+55
-1.92575e+56
-1.0463e+56
1.73043e+56
5.55973e+56
7.06492e+56
1.12973e+57
1.94526e+57
3.30772e+57
5.5892e+57
9.01653e+57
1.39504e+58
1.98973e+58
2.5252e+58
2.64126e+58
2.09897e+58
-6.20435e+57
-1.14067e+59
-4.30004e+59
-1.04652e+60
-1.73663e+60
-5.94499e+60
-4.45392e+61
-4.31095e+60
-5.3745e+60
-3.08678e+60
-1.23522e+61
-3.90456e+61
-2.44367e+61
-2.63473e+61
-3.7603e+61
-5.99123e+61
-1.15319e+62
-3.33897e+62
-9.79926e+62
-1.7905e+64
-6.06588e+63
-2.24507e+63
-2.70734e+63
-7.83935e+63
-2.33391e+64
-6.61511e+64
-1.81172e+65
-4.83521e+65
-1.35871e+66
-3.67184e+66
-9.75529e+66
-1.96763e+66
-3.84945e+65
3.35176e+66
8.99449e+66
1.19233e+67
3.02624e+65
5.43068e+67
1.01099e+67
-9.55723e+66
-1.81619e+68
-1.33181e+68
-1.69046e+68
-3.28878e+68
-6.81824e+68
-1.56648e+69
-2.36958e+69
-3.5286e+69
-4.27756e+69
-3.25992e+69
-4.44015e+69
-2.72159e+71
3.88219e+72
-1.48522e+72
1.00556e+72
4.43593e+72
5.47572e+72
6.5876e+72
8.1501e+72
6.34609e+72
1.99892e+73
6.9015e+72
2.2113e+72
6.86704e+71
-1.71203e+72
-3.46854e+72
-7.63299e+72
-2.60819e+72
-9.92718e+71
-4.16091e+71
3.3881e+72
6.31607e+72
1.26345e+73
2.26199e+73
2.7218e+73
2.11554e+72
7.92311e+72
1.98837e+73
-2.08262e+75
-1.60767e+75
-8.07509e+74
-4.12879e+74
-3.09671e+74
-3.89382e+74
-7.75264e+74
-1.41628e+75
-2.75814e+75
-5.52967e+75
-1.11622e+76
-2.2725e+76
-4.41119e+76
-9.03097e+76
-1.85099e+77
-3.72333e+77
-7.10313e+77
4.71318e+77
-6.99742e+77
-2.71483e+77
-2.45442e+77
-6.90294e+76
5.6221e+77
-1.72741e+78
-1.97232e+78
-1.93887e+78
-3.54858e+78
-5.52165e+78
-8.34387e+78
-1.93474e+79
-4.67909e+79
-8.60847e+79
-1.0803e+80
-4.64028e+79
-3.67784e+79
9.59262e+80
4.27593e+81
-2.3098e+81
8.29067e+81
1.47732e+82
1.82708e+82
1.96424e+82
1.17782e+82
1.80084e+81
7.352e+80
3.83057e+80
-1.20014e+80
4.10785e+80
9.10567e+81
3.26884e+81
-4.05269e+81
-9.45269e+81
-1.04007e+82
-6.40053e+81
-9.07246e+81
-3.33531e+82
-7.09968e+82
-1.2934e+83
-1.73872e+83
-2.2345e+83
-1.93466e+83
-6.69513e+82
-4.05737e+82
-2.37254e+82
-1.22022e+83
-1.26131e+83
-6.1476e+82
-3.34534e+82
2.22732e+82
7.04197e+82
8.20059e+82
6.44365e+82
4.15622e+82
8.34026e+82
6.36398e+82
-6.0318e+81
8.8463e+80
3.159e+83
1.74595e+83
3.5225e+83
-1.08376e+84
-3.40385e+84
3.88347e+85
1.18015e+85
9.5428e+84
-3.49241e+85
-6.8331e+85
7.44399e+85
1.19811e+86
4.62371e+85
-3.09714e+85
-1.18427e+86
-2.21794e+86
-8.97122e+85
1.63911e+87
1.00271e+88
3.92277e+88
1.22133e+89
3.30827e+89
8.18623e+89
1.90181e+90
4.19944e+90
8.928e+90
1.8373e+91
3.67815e+91
7.18678e+91
1.37345e+92
2.57168e+92
4.72367e+92
8.51905e+92
1.50951e+93
2.62918e+93
4.50294e+93
7.58526e+93
1.25694e+94
2.04916e+94
3.28681e+94
5.18706e+94
8.05403e+94
1.23038e+95
1.8492e+95
2.73417e+95
3.97685e+95
5.6898e+95
8.00692e+95
1.10818e+96
1.50833e+96
2.01906e+96
2.65799e+96
3.43987e+96
4.37833e+96
5.47785e+96
6.74413e+96
8.15406e+96
9.69588e+96
1.13359e+97
1.30292e+97
1.47201e+97
1.63434e+97
1.78263e+97
1.90907e+97
2.00542e+97
2.06309e+97
2.07309e+97
2.0261e+97
1.91438e+97
1.7377e+97
1.51038e+97
1.28292e+97
1.26487e+97
1.82623e+97
3.92424e+97
9.70834e+97
2.30101e+98
5.27209e+98
1.15972e+99
2.46657e+99
5.07692e+99
1.01614e+100
1.98607e+100
3.80119e+100
7.1375e+100
1.31658e+101
2.388e+101
4.26217e+101
7.48994e+101
1.29647e+102
2.21113e+102
3.71652e+102
6.15741e+102
1.00565e+103
1.61922e+103
2.57033e+103
4.0225e+103
6.20612e+103
9.4394e+103
1.41531e+104
2.09182e+104
3.04754e+104
4.37645e+104
6.19524e+104
8.64565e+104
1.18967e+105
1.6147e+105
2.16292e+105
2.8619e+105
3.74558e+105
4.85849e+105
6.26392e+105
8.05909e+105
1.04018e+106
1.35561e+106
1.79685e+106
2.43916e+106
3.40835e+106
4.91218e+106
7.28941e+106
1.10853e+107
1.71666e+107
2.6894e+107
4.23784e+107
6.68575e+107
1.05241e+108
1.6489e+108
2.56723e+108
3.96753e+108
6.08198e+108
9.24353e+108
1.39241e+109
2.07849e+109
3.0741e+109
4.50445e+109
6.53859e+109
9.40204e+109
1.33916e+110
1.88929e+110
2.63996e+110
3.65351e+110
5.00747e+110
6.79676e+110
9.13567e+110
1.21594e+111
1.6025e+111
2.09108e+111
2.70155e+111
3.45538e+111
4.3752e+111
5.4839e+111
6.80366e+111
8.35462e+111
1.01533e+112
1.22108e+112
1.4531e+112
1.71081e+112
1.99252e+112
2.2951e+112
2.61384e+112
2.9421e+112
3.27094e+112
3.58861e+112
3.87964e+112
4.12375e+112
4.29434e+112
4.35734e+112
4.27181e+112
3.99514e+112
3.49444e+112
2.75996e+112
1.78633e+112
3.56952e+111
-1.10162e+112
-3.27961e+112
-6.51009e+112
-1.08848e+113
-1.6524e+113
-2.3541e+113
-3.20766e+113
-4.22795e+113
-5.42773e+113
-6.81508e+113
-8.39156e+113
-1.01508e+114
-1.20777e+114
-1.41474e+114
-1.63254e+114
-1.85679e+114
-2.08223e+114
-2.30295e+114
-2.51256e+114
-2.70451e+114
-2.87241e+114
-3.0103e+114
-3.11308e+114
-3.1767e+114
-3.19848e+114
-3.17723e+114
-3.11336e+114
-3.00891e+114
-2.86737e+114
-2.69359e+114
-2.49345e+114
-2.27361e+114
-2.04112e+114
-1.80308e+114
-1.5663e+114
-1.337e+114
-1.12054e+114
-9.21234e+113
-7.42219e+113
-5.85411e+113
-4.5152e+113
-3.40153e+113
-2.49982e+113
-1.78974e+113
-1.24648e+113
-8.4309e+112
-5.5237e+112
-3.47628e+112
-2.12584e+112
-4.35476e+112
-3.18273e+112
-2.16167e+110
-1.36904e+109
3.50905e+108
-1.14889e+110
-4.57704e+109
-1.29514e+109
-2.31419e+108
1.41778e+108
4.35808e+108
8.94738e+108
8.9466e+108
5.79461e+108
2.94946e+108
1.51172e+108
1.06719e+108
-1.71237e+108
-2.12528e+108
-1.5367e+108
-4.87313e+107
-1.27629e+107
6.21319e+105
1.67661e+106
8.76385e+106
2.23335e+106
-1.70891e+105
-1.6066e+106
5.70619e+106
1.92362e+106
3.10622e+105
-1.31757e+106
1.47371e+107
2.62186e+107
3.32576e+107
3.83842e+107
3.39862e+107
9.726e+107
-2.7815e+26
-3.18008e+26
-5.29757e+25
2.09203e+26
2.04891e+26
3.2679e+26
1.64503e+26
-2.31622e+26
-1.41295e+26
-1.71e+26
-2.97999e+26
-4.12746e+26
-1.73307e+26
-1.25644e+27
-1.44257e+27
-1.67604e+27
-1.40115e+27
-1.24653e+27
-1.64518e+27
-9.73078e+25
-8.43993e+27
6.66595e+28
-3.13995e+29
-8.27553e+29
-4.38362e+29
-1.57158e+29
1.65192e+29
3.53715e+29
7.30564e+29
1.29393e+30
2.02768e+30
3.21642e+30
4.96732e+30
7.83526e+30
1.56679e+31
3.24498e+31
4.80714e+31
7.32188e+31
1.27034e+32
1.98099e+32
3.34725e+32
6.57059e+32
1.39393e+33
2.5299e+33
4.42446e+33
7.0199e+33
9.33953e+33
8.54633e+33
5.95604e+33
2.1479e+34
6.09689e+34
1.15737e+35
1.82241e+35
3.58552e+35
6.78765e+35
1.26372e+36
2.35589e+36
4.27503e+36
7.71969e+36
1.33496e+37
2.12748e+37
3.38389e+37
5.22295e+37
8.08402e+37
5.07898e+37
-2.51151e+38
-3.11238e+39
-1.88743e+39
-1.5577e+39
-3.22865e+39
-5.45371e+41
3.09386e+40
-1.29648e+40
-1.19983e+40
3.87213e+38
-1.05335e+40
-1.97427e+40
1.22352e+41
8.04404e+40
-1.0036e+41
3.53196e+42
8.64669e+42
2.31932e+43
6.14482e+43
1.73225e+44
1.01388e+45
4.44234e+44
1.26564e+44
6.47023e+43
3.94363e+43
5.34991e+43
1.60919e+43
7.80487e+42
1.88466e+42
-1.59415e+41
5.57294e+42
9.3432e+42
6.81263e+41
9.17096e+40
2.0822e+41
-2.55627e+40
-3.58726e+42
9.70644e+43
3.3309e+43
1.65e+43
5.3146e+42
3.20213e+43
1.30709e+43
-1.04025e+43
-4.80542e+43
-6.17606e+43
1.30587e+44
1.78196e+44
4.51689e+44
1.79189e+45
3.81134e+45
1.22204e+46
3.96167e+44
1.23411e+45
-2.5453e+45
3.15207e+45
-1.78509e+48
-3.15745e+47
1.42058e+48
3.43502e+47
1.6761e+47
-7.47492e+46
2.84363e+47
1.83292e+47
2.93027e+47
-2.06226e+48
-1.41977e+48
-5.71336e+47
6.0561e+46
4.37781e+47
8.94877e+47
6.28989e+48
1.60375e+49
1.76712e+50
5.06313e+49
8.09239e+48
2.34324e+50
6.5659e+50
1.20934e+51
1.83974e+51
2.45024e+51
2.86071e+51
2.73268e+51
1.9857e+51
9.54611e+50
3.00691e+50
6.21077e+49
2.82324e+50
2.50329e+50
-6.0934e+49
1.29114e+50
9.93816e+50
-3.3482e+51
1.91299e+52
4.16791e+52
7.81287e+52
1.65576e+53
3.1476e+53
6.05483e+53
1.24444e+54
1.88435e+54
3.55731e+54
6.42821e+54
1.97061e+55
2.79639e+55
-1.30371e+55
4.04622e+56
4.99159e+56
3.07068e+56
1.64179e+56
2.00834e+56
4.59336e+56
8.29593e+56
8.80444e+56
8.46865e+56
8.78935e+56
8.32638e+56
9.35858e+56
1.63062e+57
2.85482e+57
-1.26365e+58
-4.40361e+58
-2.90148e+59
-4.75663e+59
-1.11202e+60
-7.17836e+60
2.4944e+61
1.54804e+61
7.96147e+60
5.87944e+60
-2.10934e+61
6.03463e+60
-2.63055e+60
-1.00481e+61
-2.00051e+61
-3.8975e+61
-7.79072e+61
-1.44729e+62
-2.35705e+62
-1.32455e+62
-1.1573e+62
-1.58401e+62
-2.28274e+62
-3.13021e+62
-4.16187e+62
-5.91838e+62
-8.34978e+62
-5.92878e+62
1.4686e+64
5.88635e+64
7.85052e+64
1.47852e+65
-5.92642e+65
-2.03543e+65
6.54861e+65
3.68889e+66
-1.63231e+67
-4.53519e+67
-1.71874e+67
1.32365e+66
-4.24483e+68
-8.8409e+67
2.38829e+66
3.24519e+67
5.67029e+67
6.9922e+67
-3.79839e+67
-4.33721e+68
-1.23437e+69
-1.59174e+69
7.47641e+69
-9.71419e+70
-1.20936e+70
1.20555e+72
6.75075e+71
1.09907e+72
4.29635e+71
2.42348e+70
-2.67631e+71
-8.74532e+71
-8.66768e+71
-3.42816e+71
1.16119e+70
4.31561e+71
2.05091e+71
1.51675e+70
-7.27745e+71
-2.98317e+71
-1.16761e+71
-5.68059e+70
-5.39887e+69
-6.13961e+71
-1.74049e+72
-3.10648e+72
-5.08651e+72
-1.03289e+73
2.14511e+72
3.68105e+74
-1.97458e+75
-2.40899e+75
-4.42394e+74
-8.16602e+73
-2.49025e+73
1.49834e+73
-3.02106e+74
-2.43883e+74
-1.35645e+74
3.15997e+73
4.2178e+74
2.24167e+75
5.08171e+75
9.18213e+75
1.52407e+76
3.76571e+76
2.81556e+75
-7.887e+76
2.02361e+76
8.80505e+76
-7.62676e+76
-1.34747e+77
9.48983e+77
3.73853e+77
-2.02473e+77
-4.04316e+77
2.66509e+76
6.20583e+77
1.06428e+78
1.64464e+78
2.71454e+78
3.11304e+78
2.85475e+78
1.45454e+79
-8.18219e+78
-2.3055e+80
2.12044e+81
-7.30857e+80
2.03409e+80
-1.4381e+81
-5.74803e+80
1.17067e+82
7.07218e+81
3.57908e+81
1.75321e+81
7.19642e+80
1.713e+80
-1.02749e+80
-6.10728e+80
7.02659e+80
3.90042e+80
-1.83408e+79
-3.01469e+80
-7.70962e+80
-2.44566e+81
-6.03921e+80
1.21244e+81
8.52086e+81
2.30213e+82
1.52023e+82
2.49039e+82
1.34864e+82
8.37295e+81
3.80123e+81
1.15384e+82
6.36429e+81
4.64845e+81
-4.33856e+81
3.76165e+81
-1.47686e+82
-6.06391e+81
3.03173e+82
9.98058e+82
1.35134e+83
5.06418e+82
3.80726e+82
4.73564e+81
-2.15498e+83
1.97555e+83
3.48459e+83
-1.65683e+84
-4.67199e+84
-1.16505e+84
-1.00235e+85
-8.1352e+84
4.87341e+83
-5.25216e+84
-1.94445e+85
-2.02064e+85
-1.66213e+85
-1.91627e+85
-3.0077e+85
-5.00821e+85
-8.73452e+85
-1.74493e+86
-4.51662e+86
-8.11686e+86
-2.38174e+87
-8.30152e+87
-2.21121e+88
-5.5218e+88
-1.38831e+89
-3.28965e+89
-7.45913e+89
-1.62121e+90
-3.40516e+90
-6.93955e+90
-1.37521e+91
-2.65701e+91
-5.01646e+91
-9.27022e+91
-1.67869e+92
-2.98133e+92
-5.19614e+92
-8.89175e+92
-1.49445e+93
-2.46757e+93
-4.00337e+93
-6.38264e+93
-1.00005e+94
-1.53991e+94
-2.33035e+94
-3.46567e+94
-5.06507e+94
-7.27484e+94
-1.02688e+95
-1.42457e+95
-1.94145e+95
-2.6043e+95
-3.42354e+95
-4.40962e+95
-5.61489e+95
-7.01046e+95
-8.61913e+95
-1.04075e+96
-1.23422e+96
-1.43774e+96
-1.64536e+96
-1.84985e+96
-2.04281e+96
-2.21495e+96
-2.35595e+96
-2.45366e+96
-2.49139e+96
-2.44084e+96
-2.24725e+96
-1.82172e+96
-1.24058e+96
-8.41672e+95
-1.80776e+95
-6.56828e+95
-7.25222e+95
-1.64144e+96
-8.63559e+96
-2.09474e+97
-4.19711e+97
-9.08369e+97
-2.02328e+98
-4.41393e+98
-9.29027e+98
-1.89244e+99
-3.74887e+99
-7.25281e+99
-1.37364e+100
-2.55078e+100
-4.64954e+100
-8.32695e+100
-1.46624e+101
-2.53982e+101
-4.32964e+101
-7.26582e+101
-1.20059e+102
-1.95367e+102
-3.1311e+102
-4.9426e+102
-7.68491e+102
-1.17692e+103
-1.77531e+103
-2.63757e+103
-3.85946e+103
-5.56203e+103
-7.89452e+103
-1.10363e+104
-1.5198e+104
-2.0621e+104
-2.75794e+104
-3.6384e+104
-4.73993e+104
-6.10832e+104
-7.80728e+104
-9.9353e+104
-1.26568e+105
-1.62571e+105
-2.12349e+105
-2.84534e+105
-3.93806e+105
-5.64694e+105
-8.37524e+105
-1.27767e+106
-1.98975e+106
-3.13911e+106
-4.98393e+106
-7.92254e+106
-1.25623e+107
-1.98189e+107
-3.10564e+107
-4.82842e+107
-7.44282e+107
-1.13698e+108
-1.72081e+108
-2.57988e+108
-3.83092e+108
-5.63389e+108
-8.20525e+108
-1.18341e+109
-1.69011e+109
-2.39014e+109
-3.34686e+109
-4.64029e+109
-6.36983e+109
-8.65702e+109
-1.16479e+110
-1.5515e+110
-2.04577e+110
-2.67019e+110
-3.44976e+110
-4.41137e+110
-5.58306e+110
-6.99294e+110
-8.66781e+110
-1.06314e+111
-1.29025e+111
-1.54924e+111
-1.84029e+111
-2.16235e+111
-2.5129e+111
-2.8877e+111
-3.28054e+111
-3.68289e+111
-4.08347e+111
-4.46751e+111
-4.81548e+111
-5.10108e+111
-5.2885e+111
-5.33008e+111
-5.16907e+111
-4.7589e+111
-4.11429e+111
-3.84365e+111
-1.31517e+111
5.23517e+109
1.77126e+111
4.70137e+111
8.98194e+111
1.4712e+112
2.199e+112
3.09773e+112
4.18719e+112
5.48631e+112
7.00949e+112
8.76413e+112
1.07488e+113
1.2952e+113
1.53507e+113
1.79101e+113
2.05833e+113
2.33119e+113
2.60279e+113
2.86558e+113
3.11157e+113
3.33273e+113
3.52138e+113
3.67061e+113
3.77467e+113
3.82931e+113
3.83204e+113
3.7823e+113
3.68152e+113
3.53307e+113
3.34207e+113
3.11512e+113
2.85996e+113
2.58506e+113
2.29915e+113
2.01082e+113
1.72809e+113
1.4581e+113
1.20679e+113
9.78716e+112
7.76945e+112
6.03024e+112
4.57054e+112
3.37858e+112
2.43242e+112
1.70316e+112
1.15876e+112
7.64764e+111
4.85684e+111
2.8621e+111
1.03305e+111
3.16746e+110
1.08981e+110
3.56754e+109
9.64296e+108
1.90391e+109
1.02058e+109
4.0334e+108
1.40089e+108
5.35975e+107
-5.53798e+107
-2.77489e+108
1.61532e+108
-4.82399e+107
-3.27731e+107
4.67486e+106
-6.83472e+106
2.74309e+107
1.71784e+107
8.14072e+106
3.93856e+106
2.65693e+106
1.62286e+107
4.46316e+106
1.16094e+106
2.87709e+105
1.22161e+105
2.1439e+105
6.04499e+105
7.50507e+105
6.37378e+104
1.277e+105
-1.2507e+106
-2.70779e+106
-3.61837e+106
-4.31951e+106
-3.25385e+106
-1.93601e+107
-2.83327e+26
-1.24947e+26
-5.82047e+25
-2.85252e+25
-2.60833e+25
-4.07075e+25
-4.18566e+25
-4.28748e+25
-1.07509e+26
-2.03767e+26
-2.89012e+26
-5.15632e+26
-1.16745e+27
-1.93307e+27
-2.07784e+27
-2.30722e+27
-1.89978e+26
2.52962e+26
4.62275e+27
1.71224e+28
-6.11336e+27
2.59629e+29
-1.90085e+30
-1.32082e+30
-4.11082e+29
9.21943e+28
1.59621e+29
2.9704e+29
4.78164e+29
7.86874e+29
1.2651e+30
2.41095e+30
3.48084e+30
4.0658e+30
1.77449e+31
4.6861e+31
5.33824e+31
7.98366e+31
1.28692e+32
2.28961e+31
-1.02727e+32
-2.37633e+32
-2.75477e+32
-7.91805e+32
-2.22595e+33
-5.57493e+33
-1.51053e+34
-3.86883e+34
-7.08705e+34
-3.55644e+34
2.3617e+34
5.92284e+34
5.55724e+34
1.15036e+35
1.99207e+35
3.49862e+35
8.14517e+35
1.83161e+36
4.25125e+36
8.77214e+36
1.18046e+37
1.16173e+37
-1.57047e+37
-9.95201e+37
-2.13962e+38
-3.08079e+38
3.76038e+37
3.51615e+37
1.34204e+37
-2.52193e+38
-1.17537e+38
-4.3273e+38
-2.26469e+39
6.42379e+39
3.72813e+40
1.46277e+40
3.17809e+40
6.84195e+41
5.62535e+41
7.07855e+41
2.03616e+42
6.9412e+42
1.61754e+43
3.17435e+43
8.61595e+43
2.1027e+45
1.67591e+44
2.98025e+44
5.26579e+43
8.95305e+43
4.65894e+43
1.79936e+43
4.8831e+42
1.04899e+42
1.22995e+41
2.4838e+41
3.6625e+41
7.27171e+41
2.94512e+41
-6.55564e+41
-2.7623e+42
-1.21198e+43
-7.19456e+42
-6.9652e+42
-2.30296e+42
9.24274e+41
6.88356e+42
1.75806e+43
7.8418e+42
-1.21381e+43
8.12795e+41
5.48293e+44
5.69821e+44
1.4552e+45
5.61017e+45
1.52651e+46
2.83871e+46
1.29415e+46
4.075e+45
9.95329e+44
7.91281e+45
-3.64006e+48
3.91796e+49
5.29232e+48
1.2676e+48
4.13801e+47
5.64703e+46
-2.72182e+47
-1.11819e+47
-1.24555e+47
-2.2001e+48
-1.37175e+47
1.73296e+47
1.18697e+48
-6.99337e+47
3.3831e+48
3.80737e+49
7.82232e+49
1.27991e+50
1.97525e+49
1.11053e+49
-1.03032e+49
-3.20531e+49
-6.61857e+49
-1.09953e+50
-1.5885e+50
-1.7609e+50
-5.69389e+50
-5.45929e+50
-2.72787e+50
-1.28797e+50
-9.61431e+49
-8.50132e+49
-1.82159e+50
-3.63351e+50
2.78453e+51
-4.73401e+50
-4.70536e+51
1.08182e+51
1.29713e+52
3.00784e+52
7.31919e+52
1.1144e+53
2.45759e+53
5.94671e+53
1.48503e+54
3.97988e+54
7.30881e+54
2.43348e+55
2.15981e+55
-1.18061e+56
6.17275e+56
4.91047e+56
-6.42102e+55
-6.23498e+55
2.4957e+56
9.51451e+56
9.0281e+56
5.29396e+56
1.26095e+56
-7.80814e+56
-3.02416e+57
-7.52975e+57
-1.62924e+58
-3.49444e+58
-7.50648e+58
-1.74439e+59
-4.97725e+59
-1.24992e+60
-3.55823e+60
-5.27348e+60
1.31526e+60
-1.82214e+60
-6.61774e+59
2.9621e+59
8.31119e+59
1.2779e+60
1.88214e+60
2.47259e+60
2.39395e+60
6.18357e+59
-4.7784e+60
-1.47725e+61
-3.09627e+61
-7.32109e+61
-1.48443e+62
-2.66139e+62
-4.28864e+62
-6.27279e+62
-8.53225e+62
-1.17228e+63
-1.97774e+63
-3.81876e+63
-1.08221e+64
4.1001e+64
1.0811e+65
-7.56657e+63
-6.34869e+64
-6.11375e+65
-2.45034e+66
-7.81905e+66
-2.40238e+67
-7.99111e+67
-2.50307e+67
8.15726e+66
3.09592e+67
2.49885e+67
1.55998e+67
-3.89806e+66
1.03436e+68
1.19898e+68
1.01159e+68
6.87193e+67
-8.76462e+68
-7.15502e+68
-2.0074e+69
2.08321e+70
-8.1956e+71
-1.42493e+71
1.01403e+72
8.36015e+71
-1.03082e+71
5.04294e+71
-5.97672e+71
-3.4238e+71
-1.77329e+71
-1.29354e+71
-5.14728e+70
-3.52281e+70
-7.19744e+70
-2.41477e+71
-2.31302e+72
-5.83053e+71
-1.94199e+71
1.50818e+71
1.58468e+71
1.27822e+71
1.08284e+71
1.00556e+71
3.68645e+71
2.55917e+71
-1.19924e+72
-4.8151e+72
3.35903e+74
1.70897e+74
4.83756e+73
-1.79725e+73
-6.67225e+73
-1.23872e+74
-1.92881e+74
-2.40608e+74
1.57055e+74
-4.49716e+74
-1.03774e+75
3.98298e+75
2.01663e+75
-4.5887e+74
-8.70585e+75
-1.4605e+76
-4.26703e+76
-1.84283e+77
-3.22634e+75
1.16611e+77
2.61099e+76
-2.74411e+76
3.97723e+77
3.0899e+77
-1.07207e+77
-2.0972e+77
1.98862e+77
5.73308e+77
6.56288e+77
4.14033e+77
-1.23282e+77
-3.63828e+78
7.40878e+77
9.32866e+78
-4.81042e+79
-6.13569e+80
5.71674e+81
3.81951e+80
-3.03256e+80
-1.85073e+80
-4.76756e+80
4.38838e+82
1.28169e+82
3.32963e+81
9.57721e+80
1.23174e+80
3.57567e+79
-2.44503e+79
-1.25142e+81
8.78838e+80
1.59988e+79
-1.22447e+81
-1.86127e+81
-2.39134e+81
-3.26955e+81
-3.01302e+81
-2.91491e+81
-2.18112e+81
-1.33666e+81
-7.73734e+80
-1.92817e+80
1.00361e+81
6.53395e+80
2.4319e+80
-4.91996e+80
1.46441e+82
9.1661e+81
-2.59627e+82
-2.97417e+81
-2.35314e+82
-1.76184e+82
-2.38853e+82
6.46118e+82
4.27099e+83
1.16434e+83
3.30139e+82
-2.66443e+81
1.21478e+83
5.65537e+83
7.21852e+82
1.25024e+83
-1.24359e+83
1.29379e+84
-1.99833e+85
-1.30362e+85
-1.95921e+84
-1.13219e+84
-1.90441e+84
-3.34498e+84
-6.99027e+84
-1.55677e+85
-3.27003e+85
-6.67453e+85
-1.42491e+86
-3.24418e+86
-8.70178e+86
-2.38599e+86
1.10641e+86
-1.45544e+87
-6.78005e+86
5.88078e+87
1.05898e+88
2.27696e+88
4.28524e+88
9.64391e+88
1.9057e+89
3.58128e+89
6.89767e+89
1.33137e+90
2.52973e+90
4.71391e+90
8.61539e+90
1.54518e+91
2.72065e+91
4.7043e+91
7.9901e+91
1.33329e+92
2.18609e+92
3.52218e+92
5.57635e+92
8.67425e+92
1.32546e+93
1.98916e+93
2.93175e+93
4.24472e+93
6.04099e+93
8.44855e+93
1.17685e+94
1.44876e+94
2.27603e+94
3.34955e+94
3.97023e+94
5.03581e+94
5.86319e+94
6.82962e+94
8.01343e+94
9.34988e+94
1.07646e+95
1.21904e+95
1.35641e+95
1.48151e+95
1.58777e+95
1.66722e+95
1.70879e+95
1.69127e+95
1.54076e+95
1.41828e+95
1.04979e+95
-7.98538e+94
9.77427e+95
-7.43285e+95
3.69279e+95
-2.68247e+96
-2.47709e+96
-2.52975e+96
6.66443e+95
9.95592e+96
2.07675e+97
3.00893e+97
5.02301e+97
9.53208e+97
1.88522e+98
3.66067e+98
6.9589e+98
1.29915e+99
2.38429e+99
4.30326e+99
7.64032e+99
1.33486e+100
2.29557e+100
3.88657e+100
6.47941e+100
1.06377e+101
1.72005e+101
2.73926e+101
4.29663e+101
6.63781e+101
1.00998e+102
1.51348e+102
2.23356e+102
3.24612e+102
4.64587e+102
6.54807e+102
9.08943e+102
1.24282e+103
1.67443e+103
2.22403e+103
2.9148e+103
3.77458e+103
4.83995e+103
6.16453e+103
7.83497e+103
9.99969e+103
1.29185e+104
1.70447e+104
2.31578e+104
3.25733e+104
4.74739e+104
7.14263e+104
1.1018e+105
1.72889e+105
2.7394e+105
4.35684e+105
6.92426e+105
1.09621e+106
1.72509e+106
2.69477e+106
4.1748e+106
6.41076e+106
9.75411e+106
1.47019e+107
2.19485e+107
3.24518e+107
4.75167e+107
6.88979e+107
9.8923e+107
1.40638e+108
1.97974e+108
2.75926e+108
3.80753e+108
5.20163e+108
7.035e+108
9.41887e+108
1.24831e+109
1.63764e+109
2.12648e+109
2.73294e+109
3.47617e+109
4.37572e+109
5.45065e+109
6.71844e+109
8.19369e+109
9.88656e+109
1.18012e+110
1.39341e+110
1.62721e+110
1.8791e+110
2.14537e+110
2.42083e+110
2.6986e+110
2.96969e+110
3.22242e+110
3.44135e+110
3.60563e+110
3.68687e+110
3.6474e+110
3.44305e+110
3.03502e+110
2.56331e+110
1.52392e+110
4.11139e+109
-6.01751e+109
-2.24185e+110
-4.79301e+110
-8.32509e+110
-1.2879e+111
-1.85535e+111
-2.54874e+111
-3.38219e+111
-4.36725e+111
-5.51105e+111
-6.81511e+111
-8.27426e+111
-9.87581e+111
-1.15989e+112
-1.34142e+112
-1.52842e+112
-1.71641e+112
-1.90033e+112
-2.07472e+112
-2.23399e+112
-2.37269e+112
-2.4858e+112
-2.56901e+112
-2.61898e+112
-2.63352e+112
-2.61178e+112
-2.55425e+112
-2.46283e+112
-2.34064e+112
-2.19197e+112
-2.02192e+112
-1.83625e+112
-1.64098e+112
-1.44214e+112
-1.24545e+112
-1.05608e+112
-8.78434e+111
-7.16009e+111
-5.7127e+111
-4.45626e+111
-3.39452e+111
-2.52181e+111
-1.82458e+111
-1.28421e+111
-8.75826e+110
-5.7971e+110
-3.73778e+110
-2.44551e+110
-7.45705e+109
-2.53706e+109
-7.91717e+108
-4.28887e+108
-6.85377e+108
-5.64386e+108
-8.75105e+107
-1.24878e+107
2.66953e+107
7.63478e+107
-2.84828e+108
-1.20788e+108
-7.33433e+107
-1.69753e+108
-5.51496e+107
-2.6253e+107
-1.11869e+107
2.96156e+106
1.14846e+106
5.4894e+104
1.48814e+106
1.54e+106
6.78041e+105
8.82062e+104
-6.34171e+104
-9.06768e+104
-4.11066e+105
-6.69342e+104
8.05442e+103
-3.58054e+104
1.63545e+105
6.1022e+104
9.81701e+104
-1.3861e+105
1.09491e+105
2.54002e+105
1.83087e+105
2.01794e+106
-2.53236e+26
-6.62138e+25
3.67525e+24
2.37064e+25
9.27341e+24
6.9424e+24
-5.12042e+22
-1.43427e+25
-4.62116e+25
-1.04059e+26
-1.70709e+25
1.06344e+26
2.75146e+26
6.69895e+26
1.54397e+27
4.68255e+27
1.63587e+28
2.66913e+28
6.08827e+28
6.90066e+28
6.6867e+28
4.58091e+29
-5.1214e+30
-2.62492e+30
-4.76494e+29
1.27103e+28
1.23952e+29
1.16525e+29
1.71673e+29
2.89925e+29
4.71128e+29
8.90684e+29
1.10677e+30
-7.87133e+29
3.41799e+31
9.64291e+31
3.91494e+31
4.27329e+31
2.03667e+31
-7.49021e+32
-1.70314e+33
-3.32811e+33
-6.04696e+33
-1.22794e+34
-2.55552e+34
-4.93188e+34
-9.51506e+34
-1.71257e+35
-2.33401e+35
-1.42497e+35
-1.08611e+35
-2.05553e+35
-4.5037e+35
-8.6933e+35
-1.69238e+36
-3.27771e+36
-5.66833e+36
-9.17674e+36
-1.33567e+37
-1.88666e+37
-4.67299e+37
-1.13619e+38
-2.7949e+38
-4.8983e+38
-6.53925e+38
-4.72995e+38
-2.48978e+38
-2.20826e+38
-2.93177e+38
-4.21277e+38
-5.92531e+38
-1.18787e+39
-6.08554e+39
6.29364e+39
9.7252e+40
3.90558e+40
2.07839e+40
2.4253e+42
9.48117e+41
2.76772e+41
1.32763e+42
7.13616e+42
4.28676e+42
5.95328e+41
9.83672e+43
5.17733e+42
-7.43418e+44
-5.2094e+44
1.80381e+44
2.43802e+44
1.1099e+44
3.21501e+43
5.3982e+42
-3.56108e+41
-9.46955e+41
-3.24738e+41
5.59636e+41
7.65414e+41
8.80448e+39
-8.74716e+41
-1.01827e+42
-5.33113e+42
-2.67448e+42
-4.63634e+42
-4.9222e+41
3.31167e+42
5.80827e+42
1.2835e+43
1.98483e+43
4.6641e+44
6.08602e+43
1.32941e+45
6.95089e+44
1.78352e+45
6.04231e+45
6.77654e+45
7.45129e+45
4.66112e+45
3.06954e+45
5.28956e+44
-1.5371e+45
-7.63638e+48
-6.37886e+48
-2.46642e+48
-7.82877e+47
-2.0479e+47
-1.70619e+46
-1.82548e+47
-1.84229e+47
-8.30626e+46
1.03994e+47
-6.73227e+47
-9.12207e+47
3.40907e+48
-4.71139e+48
-1.57452e+48
2.7034e+47
3.97803e+48
2.36495e+49
6.46119e+48
-1.04617e+48
4.48987e+46
6.68792e+47
-7.94399e+48
-1.40105e+49
-2.71445e+49
2.61825e+49
-1.4813e+51
-8.94492e+50
-2.56118e+50
6.1497e+49
9.11286e+49
7.06678e+49
1.26365e+50
3.07578e+50
-9.64081e+51
-5.01877e+51
7.12106e+51
1.02843e+52
1.54763e+52
3.53156e+52
6.45681e+52
7.91756e+52
3.35788e+53
8.43377e+53
1.94357e+54
4.2225e+54
7.60852e+54
1.07777e+55
2.05675e+55
2.86444e+55
-7.47868e+55
-6.08356e+55
-4.26036e+56
-3.23826e+55
2.99927e+56
5.65568e+56
6.50989e+56
-6.32368e+55
9.81675e+55
-1.0537e+57
-3.34731e+57
-7.03386e+57
-1.44901e+58
-3.9903e+58
-1.03664e+59
-2.59826e+59
-5.77288e+59
-1.23599e+60
-2.36463e+60
-2.4816e+60
-3.82715e+59
-5.97766e+59
-8.09642e+58
4.68366e+59
9.54302e+59
1.74662e+60
2.8265e+60
4.51521e+60
6.18429e+60
6.57272e+60
3.79451e+60
-4.17678e+60
-2.38151e+61
-7.74301e+61
-1.90883e+62
-3.98805e+62
-7.4072e+62
-1.25969e+63
-2.03928e+63
-3.37621e+63
-6.43356e+63
-8.62287e+63
-3.56674e+64
2.27891e+64
2.14923e+63
-4.56264e+64
-9.79178e+63
4.11599e+65
3.74253e+65
-6.74142e+65
1.66684e+65
2.3726e+66
-6.62116e+66
2.96302e+67
7.52017e+67
6.98854e+67
5.30096e+67
7.24664e+67
2.63544e+67
1.85223e+68
4.89413e+68
1.76765e+69
1.77398e+69
2.27306e+69
1.61912e+70
3.67293e+70
-8.67429e+70
1.22906e+71
5.83115e+71
1.18132e+72
-2.55621e+72
-8.28983e+70
-8.35142e+71
-3.96791e+71
-1.26602e+71
-9.25646e+70
-2.13804e+70
-1.04757e+70
-1.42753e+70
-2.09392e+70
-1.13128e+71
2.21355e+69
2.19008e+70
2.10725e+71
1.9454e+71
1.82778e+71
2.27166e+71
3.00281e+71
3.34101e+71
-2.99604e+71
3.17841e+71
1.29138e+70
-1.34157e+72
-3.3643e+72
-1.44533e+73
-3.87126e+73
-8.44426e+73
-1.62549e+74
-2.69249e+74
-3.4145e+74
6.00868e+74
-1.71732e+75
-2.60248e+75
1.07395e+76
1.12485e+76
1.11079e+75
-1.60809e+76
-2.50791e+76
-1.01021e+76
6.1996e+75
1.33291e+76
4.11643e+76
5.77782e+76
1.76972e+77
1.64365e+77
1.76641e+76
2.49871e+77
5.90405e+77
8.32583e+77
9.39277e+77
7.34904e+77
1.78104e+77
-9.77203e+77
-8.91372e+78
3.35348e+79
4.94659e+79
6.85814e+79
-2.6381e+80
-3.26604e+80
-5.42267e+80
-3.99163e+80
-8.71205e+79
1.38689e+80
-5.35245e+80
-5.50458e+80
1.36821e+80
4.73843e+78
-5.05241e+79
1.50269e+80
-6.88983e+79
-4.85159e+81
3.19972e+79
1.68092e+80
-1.06375e+81
-1.58563e+81
-2.2582e+81
-3.39837e+81
-3.31343e+81
-2.16043e+81
-1.06586e+81
-7.91604e+80
1.73317e+80
4.82647e+81
5.2575e+81
2.23664e+81
1.25354e+81
1.83238e+81
7.54472e+80
1.69598e+81
-1.42633e+82
-1.46806e+82
-2.1927e+82
-2.75811e+82
-1.70546e+83
-5.74004e+82
1.22468e+84
1.82086e+83
2.97515e+82
-1.05092e+82
7.8608e+83
5.2261e+83
6.71083e+83
4.17104e+83
5.51693e+83
-2.69356e+83
3.68711e+84
1.09413e+85
4.95363e+84
-1.66923e+84
-2.49341e+84
-3.74331e+84
-7.82985e+84
-1.90584e+85
-3.5446e+85
-6.51345e+85
-1.23881e+86
-2.38628e+86
-4.36309e+86
-7.52959e+86
-1.13383e+87
-1.21503e+87
-1.5403e+87
-1.83992e+87
1.10828e+87
5.87295e+86
-9.20256e+87
-7.35377e+87
-1.56512e+88
-5.48433e+88
-9.85696e+88
-1.43278e+89
-1.93175e+89
-2.41106e+89
-2.61404e+89
-1.99958e+89
4.47391e+88
6.51369e+89
1.91932e+90
4.32935e+90
8.62169e+90
1.58769e+91
2.75382e+91
4.52133e+91
7.00578e+91
1.01964e+92
1.39555e+92
1.80415e+92
2.27403e+92
2.71867e+92
8.06404e+92
-4.25986e+93
1.41616e+94
2.00333e+94
1.38534e+94
1.85497e+94
1.04626e+94
5.23295e+93
3.39352e+93
2.93484e+93
2.91345e+93
2.97492e+93
2.97317e+93
2.74797e+93
2.49868e+93
2.09584e+93
1.13738e+93
-2.45284e+93
-2.53566e+94
1.84225e+94
2.42438e+92
-5.96905e+95
-8.70741e+95
-2.05274e+96
-4.78002e+96
-1.02805e+97
-4.02571e+96
-1.22297e+96
-1.30679e+96
4.18088e+96
1.02178e+97
8.97791e+95
-9.87985e+96
-1.89576e+97
-2.89645e+97
-4.32583e+97
-6.37227e+97
-8.92558e+97
-1.15973e+98
-1.34369e+98
-1.23972e+98
-4.51289e+97
1.73582e+98
6.53953e+98
1.59452e+99
3.30635e+99
6.25942e+99
1.11393e+100
1.89123e+100
3.08924e+100
4.88012e+100
7.48034e+100
1.11495e+101
1.61817e+101
2.28853e+101
3.15482e+101
4.23843e+101
5.54589e+101
7.05934e+101
8.72502e+101
1.04407e+102
1.20433e+102
1.32983e+102
1.38962e+102
1.34609e+102
1.15851e+102
7.91274e+101
2.31251e+101
-4.77885e+101
-1.16918e+102
-1.42966e+102
-3.86873e+101
3.64286e+102
1.37145e+103
3.51257e+103
7.67488e+103
1.53027e+104
2.86904e+104
5.14046e+104
8.88775e+104
1.49226e+105
2.44358e+105
3.91426e+105
6.1471e+105
9.47976e+105
1.43736e+106
2.14481e+106
3.15198e+106
4.56456e+106
6.51676e+106
9.17564e+106
1.27448e+107
1.7467e+107
2.36243e+107
3.15364e+107
4.15538e+107
5.40474e+107
6.93925e+107
8.79463e+107
1.1002e+108
1.35846e+108
1.65538e+108
1.99054e+108
2.36158e+108
2.76383e+108
3.19011e+108
3.63061e+108
4.07296e+108
4.50242e+108
4.90219e+108
5.25325e+108
5.53338e+108
5.71362e+108
5.75018e+108
5.57036e+108
5.05706e+108
4.06006e+108
2.51109e+108
7.59476e+107
7.90249e+106
2.53231e+108
6.89587e+108
1.00069e+109
-1.50027e+109
-1.82067e+109
-2.84961e+109
-4.41846e+109
-6.1169e+109
-7.93339e+109
-1.00028e+110
-1.23863e+110
-1.50633e+110
-1.79698e+110
-2.10209e+110
-2.41163e+110
-2.71407e+110