/*--------------------------------*- C++ -*----------------------------------*\
  =========                 |
  \\      /  F ield         | OpenFOAM: The Open Source CFD Toolbox
   \\    /   O peration     | Website:  https://openfoam.org
    \\  /    A nd           | Version:  9
     \\/     M anipulation  |
\*---------------------------------------------------------------------------*/
FoamFile
{
    format      ascii;
    class       volVectorField;
    location    "1";
    object      U;
}
// * * * * * * * * * * * * * * * * * * * * * * * * * * * * * * * * * * * * * //

dimensions      [0 1 -1 0 0 0 0];

internalField   nonuniform List<vector> 
120000
(
(3.95968 -0 5.7259)
(2.2349 -0 -4.86082)
(3.29954 -0 -7.74839)
(4.03696 -0 -10.1458)
(20.4094 -0 0.163199)
(-5.94155 0 -10.2665)
(27.584 -0 2.35303)
(-12.7335 0 -10.6656)
(-9.90645 0 -7.73026)
(-8.62303 0 -7.98959)
(-8.53046 0 -7.5083)
(-8.6377 0 -7.13294)
(-6.97458 0 -6.81098)
(-8.78929 0 -5.70389)
(-9.22769 0 -4.85703)
(-9.00521 0 -4.46665)
(-8.93608 0 -3.95214)
(-8.73451 0 -3.41133)
(-8.70133 0 -2.86124)
(-8.79299 0 -2.41837)
(-9.02212 0 -1.86991)
(-9.4415 0 -1.32609)
(-10.0987 0 -0.853369)
(-11.1173 0 -0.354436)
(-10.7616 0 -0.431378)
(-10.3577 0 -0.634695)
(-10.2082 0 -0.851231)
(-10.0834 0 -0.94116)
(-10.1665 0 -0.86575)
(-10.1159 0 -0.785333)
(-10.0546 0 -0.743007)
(-10.0371 0 -0.87088)
(-10.0849 0 -0.878597)
(-10.2242 0 -0.724519)
(-10.2579 0 -0.557977)
(-10.2207 0 -0.45425)
(-10.1999 0 -0.426195)
(-10.2174 0 -0.384755)
(-10.2278 0 -0.255946)
(-10.3093 0 -0.0464459)
(-10.3567 0 0.0872446)
(-10.3873 0 0.216884)
(-10.3829 0 0.282113)
(-10.356 0 0.281959)
(-10.2587 0 0.132919)
(-10.2878 0 0.0282549)
(-10.2413 0 -0.206488)
(-10.1915 0 -0.428979)
(-10.1792 0 -0.520283)
(-10.2319 0 -0.398147)
(-10.2262 0 -0.23154)
(-10.216 0 -0.0462394)
(-10.2328 0 0.17446)
(-10.3253 0 0.443916)
(-10.3646 0 0.661665)
(-10.3879 0 0.746826)
(-10.3821 0 0.608642)
(-10.3143 0 0.192687)
(-10.1767 0 -0.516414)
(-9.89462 0 -1.45997)
(-9.59097 0 -2.36523)
(-9.15859 0 -3.0228)
(-8.62722 0 -2.69712)
(-9.08755 0 5.08032)
(-9.64041 -0 26.9004)
(0.494148 0 -10.302)
(3.89813 0 -8.86616)
(-11.2862 -0 -1.56388)
(-9.32396 -0 -3.75328)
(-8.45809 -0 -5.15266)
(-3.83691 -0 -7.55225)
(-3.93163 -0 -9.35554)
(-0.901141 -0 -9.15314)
(2.17242 -0 6.33527)
(-1.82037 0 4.84493)
(-2.74035 0 -1.5801)
(-15.0296 0 4.2326)
(-14.1381 0 -9.32386)
(-12.322 0 -3.38909)
(-9.80564 0 -1.24417)
(-8.89612 0 -2.69456)
(-8.42725 0 -4.00954)
(-7.23484 0 -5.44627)
(-5.67369 0 -3.10708)
(-5.21171 0 3.05383)
(-5.29549 0 7.00885)
(-0.54832 0 9.29402)
(35.3028 -0 -29.2342)
(19.8384 -0 -1.73615)
(2.0497 -0 -13.0003)
(-1.59103 -0 -16.0896)
(-12.2664 -0 -8.31933)
(0.41379 0 3.99155)
(6.18369 0 -3.99928)
(3.68341 0 -8.67813)
(-34.2488 -0 -57.515)
(-21.0648 -0 -27.3332)
(-4.24221 0 3.88105)
(-8.37104 0 3.68894)
(-8.34738 0 4.64452)
(-8.41538 0 12.7748)
(-22.4893 -0 -28.5092)
(-14.1976 -0 -16.4111)
(13.2244 -0 0.271369)
(10.8095 -0 -0.661406)
(11.9034 -0 -1.03043)
(-29.2767 0 -14.1646)
(-14.1073 0 4.06731)
(-8.27082 0 4.49276)
(-11.4969 0 18.5429)
(-13.9134 0 87.8541)
(-11.1908 -0 -32.6723)
(-10.1298 -0 -16.5301)
(-9.97211 -0 -12.9299)
(-10.0572 -0 -11.645)
(-10.3376 -0 -11.2783)
(-9.98179 -0 -10.8229)
(-9.97549 -0 -10.6889)
(-6.75196 -0 -11.2991)
(-8.98447 -0 -15.2917)
(-10.7821 -0 -22.3284)
(0.203583 -0 -9.83098)
(-90.1654 0 72.1953)
(-7.89558 0 -0.287614)
(-13.413 0 3.73589)
(-7.85257 0 -2.27491)
(140.869 0 -157.975)
(1.20397 -0 -4.07518)
(-9.44367 0 -22.6554)
(10.1344 0 16.5956)
(-88.2925 -0 -74.7074)
(-9.98581 0 -14.2298)
(-10.9424 0 -14.2493)
(-11.5227 0 -14.3491)
(-14.3824 0 -17.4903)
(-3.13889 -0 -3.01447)
(-6.48367 -0 -9.83153)
(-2.13373 -0 -10.6072)
(-0.669143 0 8.1172)
(-28.3094 0 -104.5)
(-6.70574 0 167.074)
(-0.0583475 -0 -15.9935)
(0.124489 -0 -16.0327)
(0.154476 -0 -15.9967)
(0.118192 -0 -15.9477)
(0.00635094 -0 -15.8801)
(-0.241543 -0 -15.7585)
(-0.836834 -0 -15.4335)
(-2.82116 -0 -14.5236)
(-12.1407 -0 -8.04412)
(-18.7454 -0 0.447153)
(-17.6867 -0 7.14738)
(-7.21943 0 -5.96934)
(-10.1406 0 -3.45205)
(-10.3638 0 -3.58076)
(-9.76366 0 -4.8525)
(-9.99507 0 -3.222)
(-9.19985 0 -5.03997)
(-9.42837 0 -3.73645)
(-9.40843 0 -3.76896)
(-9.22424 0 -4.03297)
(-9.0045 0 -4.38329)
(-8.71207 0 -4.83088)
(-8.4182 0 -5.10604)
(-7.85409 0 -3.94035)
(-9.52496 0 -2.19143)
(-9.66828 0 -2.62179)
(-9.61026 0 -2.72945)
(-9.57402 0 -2.82726)
(-9.39995 0 -2.62772)
(-9.26538 0 -2.35482)
(-10.2447 0 -0.840793)
(-10.4482 0 -0.443629)
(-10.6806 0 -0.00981922)
(-10.414 0 -0.0914351)
(-10.4597 0 0.0616861)
(-10.4364 0 0.210975)
(-10.4337 0 0.445514)
(-10.4906 0 0.869363)
(-10.4891 0 1.2251)
(-10.449 0 1.62842)
(-10.2997 0 2.01256)
(-10.0216 0 2.16975)
(-9.75299 0 1.80807)
(-9.655 0 1.1042)
(-10.1686 0 0.443735)
(-8.77121 0 -1.99835)
(-7.91757 0 -3.03545)
(-7.3896 0 -5.32836)
(-3.25659 0 -7.8779)
(-14.8308 -0 -9.20516)
(-9.38643 -0 -3.06538)
(131.134 0 -72.9969)
(-4.25778 -0 -5.61898)
(-13.1763 -0 1.96881)
(-9.77349 -0 1.09661)
(-12.9229 -0 3.4947)
(-11.1355 -0 1.76879)
(-12.9623 -0 3.39633)
(-15.4775 -0 9.47605)
(19.1733 0 -110.382)
(-7.35386 0 -16.317)
(-8.76585 0 -11.501)
(-9.97516 0 -9.02687)
(-32.1973 0 -8.86359)
(24.6202 -0 -17.8656)
(-7.19172 0 -5.43239)
(-8.27213 0 -4.31984)
(-8.5514 0 -4.17379)
(-8.59218 0 -4.38831)
(-8.51365 0 -4.80141)
(-8.35339 0 -5.35513)
(-8.12723 0 -6.00604)
(-7.99555 0 -6.75378)
(-7.51486 0 -8.04812)
(-4.83128 0 -9.1256)
(-28.0493 0 36.9683)
(-10.512 0 -3.07737)
(35.8485 -0 27.7031)
(7.70344 -0 -9.24246)
(41.4676 -0 -19.9482)
(27.1379 -0 -38.4735)
(-3.56327 -0 -15.3314)
(-25.1553 0 -6.27831)
(-10.6545 0 6.47772)
(-12.5226 0 6.15861)
(-8.8661 0 -3.25283)
(-8.37787 0 -4.87714)
(-8.68208 0 -5.66368)
(-8.13848 0 -6.56422)
(-8.01055 0 -7.20325)
(-6.96795 0 -8.50691)
(-6.5363 0 -9.09824)
(-6.05852 0 -9.92293)
(-5.79083 0 -11.0636)
(-6.03145 0 -13.8153)
(-4.3872 0 -18.02)
(1.92004 0 -10.4889)
(7.174 -0 0.239296)
(10.8628 -0 0.0865629)
(-2.02816 0 -20.6224)
(0.0652035 0 -15.7267)
(0.567401 0 -16.7058)
(0.649957 0 -13.1208)
(2.46039 0 -18.0278)
(1.73239 0 -10.99)
(-14.5622 -0 3.10099)
(-10.9638 -0 -0.742148)
(-10.7718 -0 -0.549354)
(-12.4777 -0 1.55879)
(-13.2367 -0 2.69742)
(-38.0729 -0 32.9901)
(-19.7323 0 6.12406)
(-7.58755 -0 -1.7731)
(-10.0451 -0 -1.76868)
(-9.22251 -0 -1.83836)
(-9.58725 -0 -1.63214)
(-8.93891 -0 -2.18756)
(-7.51167 -0 -2.72392)
(-5.34496 -0 -3.10357)
(-2.44723 -0 -2.65618)
(3.14546 0 8.17233)
(-2.66149e+06 0 -3.84324e+06)
(8.43955 -0 -3.32874)
(10.3621 0 -0.541565)
(1.48992 0 -0.920608)
(-4.44625 0 -2.24946)
(-7.72834 0 -2.84327)
(-8.48265 0 -2.94462)
(-9.01198 0 -2.514)
(-9.10877 0 -2.3793)
(-9.09953 0 -2.35083)
(-9.28288 0 -2.1988)
(-9.41246 0 -2.09322)
(-9.39356 0 -2.07819)
(-9.44104 0 -2.15737)
(-9.36852 0 -2.41127)
(-9.0942 0 -2.77271)
(-8.49916 0 -2.53083)
(-8.39072 0 -1.85008)
(-122.454 0 57.5355)
(-38.5026 -0 -24.878)
(0.624211 0 -3.6913)
(-31.7548 -0 -6.52931)
(-13.1123 -0 -4.35968)
(-10.4213 -0 -6.8852)
(-2.60335 -0 -5.93667)
(-3.52328 -0 -6.29935)
(-3.3488 -0 -6.29276)
(-2.78779 -0 -7.47132)
(-2.4776 -0 -8.4323)
(-2.1524 -0 -10.294)
(-1.51137 -0 -12.6645)
(-1.10611 -0 -13.7029)
(-1.27124 -0 -13.2022)
(-2.73541 -0 -11.6442)
(-5.54944 -0 -4.60836)
(-7.30661 -0 -2.53341)
(259.625 0 -242.653)
(10.3219 0 -17.0489)
(-0.291896 -0 -6.22857)
(0.704063 0 -9.4005)
(-0.189276 0 -15.5043)
(-0.481913 0 -14.1881)
(-0.256811 0 -15.5915)
(0.312393 0 -15.1952)
(-1.70328 -0 -17.3957)
(-1.47124 0 0.577431)
(-9.32727 0 -1.05884)
(-11.6321 0 -1.43578)
(-13.5023 0 2.16659)
(6.20295 0 0.80479)
(90.2476 0 29.6724)
(-1.68788 -0 -12.5977)
(-0.522752 -0 -12.502)
(-0.258028 -0 -12.0559)
(0.135104 -0 -11.3255)
(0.403939 -0 -15.2305)
(0.349161 -0 -16.4573)
(0.543446 -0 -15.4454)
(0.701773 -0 -15.8648)
(0.639479 -0 -14.2704)
(0.782213 -0 -14.3832)
(1.16869 -0 -14.7754)
(-0.777431 -0 8.15768)
(6.34524 -0 -2.26956)
(6.1655 -0 -2.45168)
(1.38336 -0 -14.0297)
(12.1312 -0 -1.715)
(-9.34551 0 -4.39897)
(-8.04791 0 -7.54601)
(-3.65418 0 -9.37145)
(-3.09524 0 -8.24955)
(-3.37728 0 -6.17808)
(-4.66379 0 -5.91497)
(-5.38885 0 -3.32018)
(-10.8501 0 -0.784138)
(-10.9525 0 -0.298282)
(-9.52639 0 -1.13043)
(-8.01297 0 3.18896)
(-20.4506 -0 -23.0077)
(-11.2715 -0 -2.09382)
(-11.8427 -0 -0.237536)
(-12.5024 -0 0.331087)
(-13.2321 -0 4.18194)
(-2.23057 0 -11.2951)
(50.6345 -0 -20.7278)
(9.3517 0 3.37563)
(-0.278333 0 -3.99545)
(17.674 -0 -5.99798)
(6.33073 0 2.26178)
(2.26041 0 -1.50447)
(-4.16767 0 -3.85858)
(-7.80747 0 -6.48402)
(-8.06032 0 -8.69182)
(-7.39311 0 -10.6459)
(-6.33252 0 -12.3839)
(-5.05197 0 -13.6851)
(-3.8517 0 -14.4587)
(-2.9335 0 -14.885)
(-2.27672 0 -15.1321)
(-1.81175 0 -15.3064)
(-1.46688 0 -15.4281)
(-1.2036 0 -15.5149)
(-1.00061 0 -15.5922)
(-0.837272 0 -15.6486)
(-0.704208 0 -15.6988)
(-0.593043 0 -15.742)
(-0.499468 0 -15.7781)
(-0.419849 0 -15.8085)
(-0.351316 0 -15.8342)
(-0.291805 0 -15.8562)
(-0.239805 0 -15.875)
(-0.194171 0 -15.8911)
(-0.154009 0 -15.905)
(-0.118617 0 -15.9168)
(-0.0874292 0 -15.9269)
(-0.0599814 0 -15.9355)
(-0.0358841 0 -15.9428)
(-0.0147971 0 -15.9489)
(0.00358727 0 -15.9541)
(0.0195549 0 -15.9584)
(0.0333704 0 -15.962)
(0.0452617 0 -15.9651)
(0.0553911 0 -15.9675)
(0.0638264 0 -15.9694)
(0.0705501 0 -15.9708)
(0.0755472 0 -15.9715)
(0.078934 0 -15.9719)
(0.0809455 0 -15.9721)
(0.0817071 0 -15.9713)
(0.0811247 0 -15.9766)
(0.0792594 0 -15.9724)
(0.0773991 0 -15.9716)
(0.0745038 0 -15.9693)
(0.0714284 0 -15.9703)
(0.0673067 0 -15.9675)
(0.062253 0 -15.967)
(0.056833 0 -15.9663)
(0.0510208 0 -15.9656)
(0.0447821 0 -15.9649)
(0.0380163 0 -15.9641)
(0.0304807 0 -15.963)
(0.0215783 0 -15.9613)
(0.0098636 0 -15.958)
(-0.00803588 0 -15.9506)
(-0.0398985 0 -15.9334)
(-0.103541 0 -15.8896)
(-0.238858 0 -15.7884)
(-0.523918 0 -15.5252)
(-1.09086 0 -15.1218)
(-1.99265 0 -14.8123)
(-2.6574 0 -14.7476)
(-2.65969 0 -14.9324)
(-2.2673 0 -15.0785)
(-1.8475 0 -15.2622)
(-1.52182 0 -15.4309)
(-1.25179 0 -15.5083)
(-1.04057 0 -15.5744)
(-0.872567 0 -15.6308)
(-0.739343 0 -15.6801)
(-0.630752 0 -15.7224)
(-0.539857 0 -15.7583)
(-0.462375 0 -15.7887)
(-0.395345 0 -15.8147)
(-0.336831 0 -15.837)
(-0.285379 0 -15.8563)
(-0.239865 0 -15.873)
(-0.199421 0 -15.8875)
(-0.163365 0 -15.9002)
(-0.131155 0 -15.9113)
(-0.102355 0 -15.9209)
(-0.0766091 0 -15.9293)
(-0.0536257 0 -15.9366)
(-0.0331622 0 -15.9428)
(-0.0150169 0 -15.9482)
(0.000978442 0 -15.9527)
(0.0149629 0 -15.9565)
(0.0270496 0 -15.9597)
(0.0373278 0 -15.9622)
(0.0458626 0 -15.9641)
(0.0526943 0 -15.9655)
(0.0578354 0 -15.9663)
(0.0612672 0 -15.9667)
(0.0629331 0 -15.9665)
(0.0627324 0 -15.9658)
(0.0605113 0 -15.9646)
(0.0560576 0 -15.9627)
(0.0490991 0 -15.9602)
(0.0393185 0 -15.9569)
(0.0263969 0 -15.9529)
(0.0101093 0 -15.9479)
(-0.009508 0 -15.9421)
(-0.0319215 0 -15.9355)
(-0.0558646 0 -15.9286)
(-0.0792686 0 -15.9219)
(-0.0995626 0 -15.9162)
(-0.114368 0 -15.9122)
(-0.122273 0 -15.9104)
(-0.123206 0 -15.9107)
(-0.118221 0 -15.9128)
(-0.108927 0 -15.9161)
(-0.0969451 0 -15.9203)
(-0.0836044 0 -15.9248)
(-0.0698519 0 -15.9293)
(-0.0562964 0 -15.9337)
(-0.0432942 0 -15.9378)
(-0.0310328 0 -15.9417)
(-0.0195948 0 -15.9452)
(-0.00900231 0 -15.9484)
(0.000755727 0 -15.9513)
(0.0097066 0 -15.954)
(0.0178846 0 -15.9563)
(0.025326 0 -15.9584)
(0.0320666 0 -15.9602)
(0.0381405 0 -15.9619)
(0.0435799 0 -15.9633)
(0.048415 0 -15.9645)
(0.0526742 0 -15.9656)
(0.0563841 0 -15.9665)
(0.0595699 0 -15.9672)
(0.0622554 0 -15.9678)
(0.0644632 0 -15.9683)
(0.0662148 0 -15.9687)
(0.0675307 0 -15.969)
(0.0684308 0 -15.9691)
(0.0689338 0 -15.9692)
(0.069058 0 -15.9692)
(0.0688212 0 -15.9692)
(0.0682408 0 -15.9691)
(0.0673341 0 -15.9689)
(0.0661185 0 -15.9687)
(0.0646121 0 -15.9685)
(0.0628338 0 -15.9682)
(0.0608043 0 -15.9679)
(0.0585462 0 -15.9676)
(0.0560849 0 -15.9674)
(0.0534473 0 -15.9671)
(0.0506597 0 -15.9668)
(0.0477405 0 -15.9666)
(0.0446847 0 -15.9663)
(0.0414327 0 -15.966)
(0.0378118 0 -15.9655)
(0.0334383 0 -15.9648)
(0.0275688 0 -15.9636)
(0.0189174 0 -15.9617)
(0.0055314 0 -15.9594)
(-0.0150074 0 -15.9578)
(-0.0445129 0 -15.962)
(-0.0814556 0 -15.9898)
(-0.111539 0 -16.1335)
(-0.116308 0 -19.6863)
(-4.34791 -0 -5.77936)
(0.184421 -0 -15.9871)
(0.142047 -0 -15.978)
(0.131841 -0 -15.979)
(0.116231 -0 -15.9742)
(0.102833 -0 -15.972)
(0.0932041 -0 -15.971)
(0.0866076 -0 -15.9704)
(0.081569 -0 -15.9698)
(0.0771142 -0 -15.9692)
(0.0727921 -0 -15.9686)
(0.0684399 -0 -15.968)
(0.0640091 -0 -15.9675)
(0.0594854 -0 -15.9669)
(0.0548614 -0 -15.9664)
(0.0501318 -0 -15.966)
(0.0452937 -0 -15.9655)
(0.0403476 -0 -15.9651)
(0.0352969 -0 -15.9648)
(0.0301473 -0 -15.9645)
(0.0249055 -0 -15.9642)
(0.0195785 -0 -15.964)
(0.0141724 -0 -15.9638)
(0.00869238 -0 -15.9637)
(0.0031425 -0 -15.9636)
(-0.00247449 -0 -15.9635)
(-0.00815673 -0 -15.9636)
(-0.013903 -0 -15.9637)
(-0.0197123 -0 -15.9638)
(-0.0255835 -0 -15.964)
(-0.031515 -0 -15.9643)
(-0.0375036 -0 -15.9646)
(-0.0435434 -0 -15.965)
(-0.0496236 -0 -15.9655)
(-0.0557241 -0 -15.966)
(-0.0618097 -0 -15.9666)
(-0.0678206 -0 -15.9674)
(-0.0736614 -0 -15.9682)
(-0.0791881 -0 -15.9691)
(-0.0841954 -0 -15.9701)
(-0.0884065 -0 -15.9711)
(-0.0914651 -0 -15.9722)
(-0.092919 -0 -15.9731)
(-0.0921599 -0 -15.9738)
(-0.0882097 -0 -15.9742)
(-0.0791581 -0 -15.974)
(-0.0615896 -0 -15.9726)
(-0.0306632 -0 -15.9671)
(0.0174471 -0 -15.9402)
(0.123753 -0 -15.8018)
(7.88276 -0 -8.17167)
(8.31528 -0 -10.5605)
(-12.8346 0 23.4714)
(16.6796 0 25.6899)
(-1.77644 -0 10.4808)
(-0.71357 -0 -15.3936)
(11.5137 0 23.8951)
(15.8359 0 16.3793)
(12.3515 0 5.35794)
(13.924 0 1.42696)
(10.0303 0 -4.00408)
(4.24243 0 -6.37615)
(6.20031 0 -8.92598)
(5.49287 0 -10.3832)
(6.6682 0 -8.10178)
(4.47078 0 -6.82804)
(5.51748 0 -11.2826)
(4.03417 -0 -11.0069)
(7.697 -0 -7.53831)
(374.32 -0 -495.473)
(3.78876 -0 -21.3059)
(-4.87846 -0 -9.38132)
(-7.73517 -0 -8.62954)
(-1.43151 0 -12.6944)
(-0.141777 0 15.7369)
(-7.69522 0 -8.2049)
(-7.13482 0 -8.38396)
(-5.50621 0 -9.60624)
(-1.30067 0 -10.2264)
(-3.1902 -0 -12.7748)
(-6.27841 -0 -6.62365)
(-8.1658 -0 0.188402)
(-1.38269 0 -16.1994)
(-0.771374 0 -16.4559)
(-0.470046 0 -16.3551)
(-0.378025 0 -16.3113)
(-0.584881 0 -15.9696)
(-0.190652 0 -17.6633)
(-1.04948 -0 5.80076)
(-11.1441 -0 36.62)
(-2.46922 0 -30.3353)
(0.807302 -0 19.5148)
(-9.1546 0 -3.71902)
(64.3558 0 -97.9457)
(169.878 0 38.0813)
(-14.5184 -0 2.85739)
(-9.59402 0 -3.37703)
(-9.75207 0 -3.99838)
(-9.61031 0 -4.73237)
(-9.71338 0 -5.96112)
(-8.61874 0 -8.16255)
(-9.24127 0 -7.75469)
(-9.74723 0 -7.03279)
(-9.50944 0 -6.73587)
(-9.75185 0 -6.06815)
(-9.74015 0 -4.98067)
(-9.34297 0 -2.6047)
(-8.50913 0 -1.76526)
(-7.66206 0 -2.78015)
(-5.58523 0 -2.22264)
(-18.806 0 11.4544)
(30.1207 -0 -38.145)
(-81.424 0 77.5062)
(-13.0398 0 7.89125)
(-9.98591 0 4.71851)
(-9.71136 0 3.48116)
(-9.80239 0 3.04607)
(-9.64335 0 2.61943)
(-9.52415 0 1.92583)
(-9.44128 0 1.31741)
(-9.73999 0 1.30152)
(-9.57284 0 1.86891)
(-9.58909 0 2.69417)
(-9.38097 0 2.87806)
(-9.32498 0 3.28652)
(-9.57954 0 4.47586)
(-9.34659 0 6.36808)
(-9.26844 0 9.49878)
(-8.86369 0 11.7037)
(-9.1747 0 16.4917)
(-9.03323 0 20.6299)
(-8.58137 0 23.1994)
(-7.28896 0 18.8642)
(-8.4983 0 18.5343)
(-8.85721 0 11.7348)
(-9.10031 0 6.09941)
(-9.47124 0 3.11614)
(-9.9127 0 2.55469)
(-9.82626 0 2.57999)
(-9.64284 0 2.626)
(-9.52831 0 2.75118)
(-9.6838 0 3.09699)
(-9.70629 0 3.28413)
(-9.73284 0 3.28398)
(-9.79545 0 2.99537)
(-9.85488 0 2.48707)
(-9.90495 0 1.86303)
(-9.88701 0 1.12702)
(-9.91146 0 0.498366)
(-9.88408 0 -0.00372648)
(-9.86254 0 -0.212601)
(-9.85272 0 -0.0575219)
(-7.26876 -0 -0.541231)
(-8.13087 -0 0.0432097)
(-4.27058 -0 -19.51)
(-8.43487 -0 1.5347)
(-10.4178 -0 8.71586)
(-8.02829 0 -22.0131)
(14.4797 -0 -12.5783)
(-4.5572 -0 21.7208)
(-6.40074 -0 11.5194)
(-8.93636 -0 2.51305)
(-12.0469 -0 0.542966)
(-10.2982 -0 0.612764)
(-10.632 -0 3.82121)
(-10.6966 -0 6.71963)
(-9.16019 -0 7.27187)
(-0.265867 -0 10.3335)
(1.53529 -0 15.3604)
(-8.71132 0 4.77693)
(-9.40249 0 6.63642)
(-9.52286 0 8.15582)
(-9.42048 0 9.03305)
(-9.77819 0 9.68568)
(-3.13351 0 6.59836)
(12.9165 0 -21.3021)
(14.6015 -0 6.3513)
(24.369 -0 11.1257)
(0.292103 0 -16.078)
(-2.46062 -0 12.0415)
(9.51672 -0 9.70057)
(-0.552587 -0 2.68559)
(0.622762 -0 -17.176)
(1.93689 0 11.5602)
(1.91917 0 0.570147)
(6.79691 0 15.0964)
(-27.3149 -0 20.0728)
(-11.3802 -0 11.2671)
(-12.4909 -0 33.7289)
(-11.5696 -0 -9.55418)
(-10.7194 -0 -10.7939)
(1.34886 -0 13.7374)
(-2.81125 -0 4.89353)
(-8.5429 -0 3.15481)
(26.2896 0 15.4049)
(808.284 0 2797.43)
(-13.5714 -0 -1.12887)
(-8.33041 -0 -7.54119)
(-8.7774 -0 -2.20976)
(-14.172 -0 1.60605)
(-11.4678 -0 3.2059)
(-10.6155 -0 0.464169)
(-10.4973 -0 -3.59856)
(-10.4394 -0 -6.15083)
(-9.84059 -0 -8.58872)
(-11.798 -0 -10.4885)
(-7.47015 -0 -10.1586)
(-9.02045 -0 -10.8267)
(8.37188 0 26.5882)
(0.0028205 -0 -9.86241)
(14.5624 -0 -19.0673)
(9.21667 0 -7.84603)
(-4.22497 -0 -13.4621)
(4.34261 0 -10.5416)
(1.53541 -0 -4.49076)
(-6.73301 0 -9.81433)
(-16.9812 0 -17.1684)
(-5.72399 0 -6.00806)
(5.3258 0 5.23705)
(0.472047 0 -0.475046)
(-8.16268 0 -8.48615)
(-9.82329 0 -9.8238)
(-10.4299 0 -10.5235)
(-10.4303 0 -9.46747)
(-10.2103 0 -4.98556)
(-10.5583 -0 -15.9977)
(-1.02925 0 9.60694)
(6.67948 -0 14.3501)
(-3.13003 0 7.11837)
(-2.92284 0 -17.2058)
(-1.94286 0 -17.9342)
(-1.19818 0 -18.1231)
(-0.662871 0 -18.3001)
(-0.228768 0 -18.4073)
(0.11923 0 -18.3005)
(0.18863 0 -18.115)
(-0.573242 0 -15.5949)
(-4.71231 0 -5.89814)
(-9.49476 0 -0.61891)
(-9.05842 0 0.907141)
(-9.54523 0 -0.152746)
(-9.93459 0 -0.16058)
(-10.479 0 0.141954)
(-9.65589 0 -0.83164)
(-10.3469 0 0.102569)
(-9.55512 0 -0.939364)
(-10.1599 0 0.381403)
(-10.0512 0 0.449678)
(-10.026 0 0.553245)
(-10.0719 0 0.720673)
(-10.0525 0 0.877725)
(-10.0187 0 0.93073)
(-9.78355 0 1.05961)
(-9.60823 0 0.692346)
(-9.83796 0 0.856032)
(-9.82274 0 1.3687)
(-10.2394 0 3.45049)
(-8.92742 0 4.58831)
(-36.2654 0 48.4289)
(-0.622724 0 -0.140103)
(1.67719 0 3.23944)
(-12.1751 -0 -8.75287)
(-11.9552 -0 -8.04239)
(-11.3384 -0 -7.03979)
(-11.8476 -0 -5.84137)
(-12.0412 -0 -5.27617)
(-11.2061 -0 -6.14883)
(-11.1984 -0 -6.00821)
(-11.3095 -0 -6.22029)
(-11.4954 -0 -7.00542)
(-11.8837 -0 -9.06755)
(-12.5008 -0 -13.7909)
(-11.6826 -0 -19.692)
(-6.09097 -0 -16.054)
(-4.67166 -0 -0.367715)
(0.487387 -0 9.45375)
(-19.1889 0 -0.832629)
(-2.56585 0 -39.5324)
(7.15013 -0 11.7359)
(11.6032 0 2.16049)
(10.0523 0 2.97562)
(10.2325 0 0.680912)
(14.1514 0 -2.45163)
(-4.15104 -0 3.61292)
(34.982 0 -47.3155)
(-10.2887 -0 1.92668)
(-10.1604 -0 1.54006)
(-10.1713 -0 1.25617)
(-10.1552 -0 1.18584)
(-10.0764 -0 1.34027)
(-9.93056 -0 2.20007)
(-90.8364 0 -454.336)
(-7.62576 0 0.781359)
(-7.81903 0 -3.01295)
(11.8281 0 31.4229)
(-13.4226 -0 -14.2367)
(-11.5394 -0 -11.3164)
(-11.0378 -0 -10.7218)
(-10.8346 -0 -10.5396)
(-10.7942 -0 -10.3697)
(-10.8234 -0 -10.0132)
(-11.1428 -0 -9.53376)
(-11.131 -0 -9.6858)
(-12.5334 -0 -10.838)
(-4.83013 0 -7.7032)
(-14.3036 0 -8.62732)
(-9.73358 0 -10.2291)
(-8.78227 0 -8.48579)
(-9.27767 0 -7.95745)
(-9.48213 0 -9.51109)
(-8.35674 0 -9.87833)
(-6.68669 -0 -11.6787)
(-9.56555 -0 -11.8159)
(-6.48681 -0 -12.0768)
(-2.45409 -0 -53.5242)
(-7.81858 0 34.0703)
(-12.7784 0 11.8846)
(-9.90025 0 3.32396)
(-10.0191 0 1.04205)
(-9.97447 0 -0.79586)
(-9.5649 0 -2.30524)
(-8.26307 0 -2.17785)
(-5.03782 0 -1.12462)
(21.0739 -0 -21.6256)
(-9.67527 -0 11.7648)
(-1.84743 -0 -17.0293)
(198.977 0 -37.3527)
(6.61756 0 10.6947)
(17.2685 0 98.4603)
(1.63289 0 17.1525)
(0.918335 -0 -18.9899)
(18.0339 -0 -33.0948)
(9.75779 -0 -16.7928)
(0.438929 -0 -14.1711)
(-4.98926 -0 -0.851426)
(-7.60407 -0 -2.38085)
(-2.63021 -0 0.787046)
(-10.0821 0 -18.3882)
(-8.90377 0 -12.3955)
(-9.56438 0 -6.84666)
(-6.14767 0 6.99563)
(-10.6919 0 3.76984)
(-9.96147 0 4.29976)
(-9.84493 0 5.27582)
(-9.97897 0 6.6714)
(-9.99723 0 7.81319)
(-10.0003 0 8.63938)
(-9.99936 0 9.17393)
(-10.0033 0 9.50855)
(-9.99989 0 9.7725)
(5.88237 -0 10.0147)
(10.6204 -0 10.3009)
(19.0476 -0 14.5146)
(11.6322 -0 10.8625)
(10.2768 -0 10.3414)
(11.16 -0 11.6952)
(12.3862 -0 18.9773)
(-5.74149 -0 7.10271)
(-10.6799 -0 1.67146)
(-11.6875 -0 -0.412936)
(-10.4874 -0 -2.69328)
(-9.9734 -0 -3.84233)
(-10.2189 -0 -4.73722)
(-10.1269 -0 -5.50387)
(-9.75143 -0 -6.22154)
(-9.58709 -0 -6.59487)
(-9.78211 -0 -9.6347)
(-6.78185 -0 -18.3738)
(0.310367 -0 -39.0874)
(-31.7149 -0 -0.0500723)
(-58.9855 -0 2.95314)
(0.335712 0 10.0041)
(-8.9244 -0 -7.71374)
(-7.23775 -0 -8.78897)
(-5.76922 -0 -3.03764)
(-6.44858 -0 -3.67615)
(-6.17373 -0 -4.43736)
(-6.77528 -0 -3.58737)
(-6.55419 -0 -3.27388)
(-6.70911 -0 -2.64758)
(-7.22203 -0 -0.505757)
(-8.49397 -0 3.11893)
(-10.0376 -0 5.9202)
(-12.2888 -0 6.32194)
(-9.80532 -0 -3.10376)
(-10.1085 -0 -7.373)
(-4.07193 -0 -15.9063)
(-35.3412 -0 -26.692)
(-1.18983 -0 -7.01194)
(-2.52621 -0 -11.3478)
(-2.90729 -0 -21.9782)
(5.14517 0 55.4368)
(-77.5261 -0 -65.2853)
(5.51586 0 -6.35046)
(1.94364 0 -16.2615)
(1.39781 0 -0.669547)
(-7.85914 -0 -12.1761)
(-2.14889 -0 -1.78644)
(-1.31765 -0 -12.9352)
(16.7461 -0 -37.5448)
(-0.770985 0 -11.7715)
(-0.565086 -0 1.3578)
(-0.420445 -0 -1.21876)
(-0.539828 -0 -0.807497)
(1.44651 -0 -6.91935)
(3.74111 -0 -11.9749)
(0.455971 0 -7.04957)
(-3.16966 0 -19.3462)
(-0.81302 0 -16.5576)
(1.88021 0 23.5436)
(1.75566 0 -7.04435)
(6.11046 0 -16.3937)
(10.4061 0 3.15221)
(-2.3124 0 -2.05322)
(-8.23335 0 -2.82677)
(-5.12737 0 -3.79372)
(-9.35165 0 -6.08551)
(-7.74718 0 -3.14489)
(-15.3223 0 -8.61329)
(-6.86519 0 -10.0871)
(-6.97741 0 -8.95528)
(-3.72463 0 -8.52382)
(-0.589406 0 -9.99883)
(2.66486 0 -8.63184)
(-167.372 -0 13.4481)
(-3.62485 -0 -5.09571)
(7.39517 0 3.31509)
(993.682 -0 912.22)
(1.49237 -0 9.59403)
(22.168 -0 13.3573)
(4.82237 0 -6.64655)
(2.57348 -0 2.13615)
(-30.8151 -0 28.0757)
(-2.58986 -0 -0.276861)
(-4.30182 -0 -3.01051)
(-9.78634 -0 -0.792629)
(-8.49903 -0 0.415526)
(-10.9918 -0 -0.35505)
(-10.5659 -0 -0.683229)
(-10.2529 -0 -0.868828)
(-10.0267 -0 -0.656233)
(-10.1721 -0 -0.415272)
(-9.99344 -0 -0.698071)
(-10.0117 -0 -0.896103)
(-10.0253 -0 -1.22931)
(-9.99505 -0 -1.78669)
(-9.85213 -0 -2.66562)
(-9.63484 -0 -3.8221)
(-9.34188 -0 -5.13794)
(-8.8536 -0 -6.57094)
(-8.38419 -0 -7.98409)
(-7.92825 -0 -9.26994)
(-7.36496 -0 -10.3983)
(-6.90645 -0 -11.3693)
(-6.43878 -0 -12.1812)
(-6.00917 -0 -12.8514)
(-5.62127 -0 -13.4143)
(-5.26846 -0 -13.8913)
(-4.94551 -0 -14.3004)
(-4.6489 -0 -14.656)
(-4.37519 -0 -14.9687)
(-4.12132 -0 -15.2466)
(-3.88472 -0 -15.4958)
(-3.66327 -0 -15.7209)
(-3.45515 -0 -15.9254)
(-3.25886 -0 -16.1124)
(-3.07309 -0 -16.2839)
(-2.89677 -0 -16.442)
(-2.72898 -0 -16.5879)
(-2.5691 -0 -16.7229)
(-2.41674 -0 -16.8478)
(-2.27188 -0 -16.9629)
(-2.13461 -0 -17.0688)
(-2.00475 -0 -17.1661)
(-1.88119 -0 -17.2561)
(-1.76185 -0 -17.3405)
(-1.64511 -0 -17.4199)
(-1.53217 -0 -17.4932)
(-1.42642 -0 -17.5647)
(-1.31379 -0 -17.5929)
(-1.21176 -0 -17.6725)
(-1.11781 -0 -17.7301)
(-1.02277 -0 -17.788)
(-0.933383 -0 -17.8422)
(-0.841367 -0 -17.8685)
(-0.750475 -0 -17.9016)
(-0.662352 -0 -17.933)
(-0.575829 -0 -17.9612)
(-0.490119 -0 -17.9863)
(-0.404453 -0 -18.0085)
(-0.318361 -0 -18.0277)
(-0.232498 -0 -18.0423)
(-0.150981 -0 -18.048)
(-0.0881651 -0 -18.0302)
(-0.0879381 -0 -17.9458)
(-0.276358 -0 -17.6787)
(-0.981845 -0 -16.8171)
(-2.90875 -0 -14.5535)
(-5.98657 -0 -9.81601)
(-8.01574 -0 -5.82361)
(-9.26204 -0 -4.23376)
(-9.10619 -0 -4.58845)
(-9.55263 -0 -5.43753)
(-8.80016 -0 -6.90391)
(-7.80681 -0 -8.25442)
(-7.71593 -0 -9.32651)
(-7.41271 -0 -10.3429)
(-6.97008 -0 -11.2729)
(-6.52298 -0 -12.0535)
(-6.11014 -0 -12.7018)
(-5.73803 -0 -13.2487)
(-5.39966 -0 -13.7083)
(-5.09385 -0 -14.1067)
(-4.81334 -0 -14.4524)
(-4.55457 -0 -14.7568)
(-4.3146 -0 -15.0276)
(-4.09095 -0 -15.2707)
(-3.88152 -0 -15.4908)
(-3.68458 -0 -15.6912)
(-3.4987 -0 -15.875)
(-3.32266 -0 -16.0441)
(-3.15548 -0 -16.2005)
(-2.99634 -0 -16.3455)
(-2.84453 -0 -16.4803)
(-2.69951 -0 -16.6058)
(-2.56081 -0 -16.7228)
(-2.42809 -0 -16.8319)
(-2.30112 -0 -16.9335)
(-2.17978 -0 -17.0279)
(-2.06409 -0 -17.1152)
(-1.95427 -0 -17.1954)
(-1.85075 -0 -17.2683)
(-1.7543 -0 -17.3334)
(-1.66611 -0 -17.3898)
(-1.58796 -0 -17.4363)
(-1.52245 -0 -17.471)
(-1.47324 -0 -17.4913)
(-1.44535 -0 -17.4937)
(-1.44532 -0 -17.4735)
(-1.48114 -0 -17.4252)
(-1.56137 -0 -17.3431)
(-1.69303 -0 -17.2228)
(-1.878 -0 -17.064)
(-2.10859 -0 -16.8736)
(-2.365 -0 -16.668)
(-2.61809 -0 -16.4708)
(-2.83787 -0 -16.3058)
(-3.00313 -0 -16.1895)
(-3.10634 -0 -16.1265)
(-3.15177 -0 -16.1117)
(-3.15025 -0 -16.1345)
(-3.11417 -0 -16.1836)
(-3.0546 -0 -16.2494)
(-2.98011 -0 -16.3244)
(-2.89688 -0 -16.4037)
(-2.80908 -0 -16.4842)
(-2.7194 -0 -16.5639)
(-2.62953 -0 -16.6417)
(-2.54048 -0 -16.717)
(-2.45285 -0 -16.7896)
(-2.36693 -0 -16.8593)
(-2.28288 -0 -16.9261)
(-2.20072 -0 -16.9902)
(-2.12047 -0 -17.0516)
(-2.04205 -0 -17.1104)
(-1.96541 -0 -17.1668)
(-1.89047 -0 -17.2208)
(-1.81717 -0 -17.2725)
(-1.74541 -0 -17.322)
(-1.67513 -0 -17.3693)
(-1.60624 -0 -17.4147)
(-1.53867 -0 -17.4581)
(-1.47236 -0 -17.4996)
(-1.40722 -0 -17.5392)
(-1.34318 -0 -17.5771)
(-1.28017 -0 -17.6132)
(-1.21812 -0 -17.6477)
(-1.15695 -0 -17.6805)
(-1.09658 -0 -17.7118)
(-1.03691 -0 -17.7416)
(-0.977836 -0 -17.7699)
(-0.919244 -0 -17.7968)
(-0.860975 -0 -17.8224)
(-0.802829 -0 -17.8468)
(-0.74453 -0 -17.8702)
(-0.685694 -0 -17.8927)
(-0.625763 -0 -17.9148)
(-0.563924 -0 -17.9368)
(-0.498982 -0 -17.9594)
(-0.429188 -0 -17.9836)
(-0.352008 -0 -18.0105)
(-0.263841 -0 -18.0416)
(-0.159677 -0 -18.0784)
(-0.0326353 -0 -18.1218)
(0.126979 -0 -18.1712)
(0.334609 -0 -18.2218)
(0.621464 -0 -18.2601)
(1.06875 -0 -18.245)
(1.91873 -0 -17.9828)
(2.36413 -0 -13.3552)
(52.8064 -0 32.9928)
(-5.8898 0 -14.8427)
(-3.72124 0 -16.2234)
(-2.70661 0 -16.9335)
(-2.17162 0 -17.2627)
(-1.82706 0 -17.4485)
(-1.5845 0 -17.561)
(-1.40184 0 -17.6381)
(-1.25644 0 -17.6975)
(-1.135 0 -17.7465)
(-1.02947 0 -17.7884)
(-0.934929 0 -17.8249)
(-0.848269 0 -17.8568)
(-0.767467 0 -17.8849)
(-0.691129 0 -17.9097)
(-0.618256 0 -17.9317)
(-0.548098 0 -17.9509)
(-0.480075 0 -17.9678)
(-0.413725 0 -17.9824)
(-0.348664 0 -17.9949)
(-0.284561 0 -18.0053)
(-0.221125 0 -18.0137)
(-0.158082 0 -18.0202)
(-0.0951709 0 -18.0248)
(-0.0321327 0 -18.0274)
(0.0312971 0 -18.0282)
(0.0953943 0 -18.0269)
(0.160453 0 -18.0236)
(0.226791 0 -18.0182)
(0.29476 0 -18.0105)
(0.364752 0 -18.0003)
(0.43721 0 -17.9875)
(0.512639 0 -17.9716)
(0.591621 0 -17.9522)
(0.674821 0 -17.929)
(0.763011 0 -17.9011)
(0.857079 0 -17.8679)
(0.958049 0 -17.8283)
(1.06711 0 -17.7811)
(1.18565 0 -17.7248)
(1.31533 0 -17.6579)
(1.45815 0 -17.5781)
(1.6167 0 -17.4831)
(1.79454 0 -17.3698)
(1.99723 0 -17.2346)
(2.23401 0 -17.0743)
(2.52136 0 -16.8887)
(2.88818 0 -16.6857)
(3.43657 0 -16.4585)
(4.52251 0 -15.9431)
(-8.77348 -0 21.5953)
(11.6922 0 -2.26481)
(-0.843206 0 6.37095)
(9.31344 0 0.591127)
(-18.634 -0 34.4817)
(2.27328 0 -15.9415)
(8.21378 0 0.827072)
(8.6705 0 3.32234)
(8.26097 0 2.74309)
(9.64324 0 3.29668)
(13.2524 0 16.2211)
(0.418761 -0 -23.4814)
(-2.10026 -0 -19.0794)
(9.40123 -0 -11.0549)
(22.5002 -0 -16.2271)
(-2.00005 0 -0.265916)
(-25.2855 -0 -4.59827)
(9.70942 0 -8.3551)
(9.96082 -0 8.51464)
(11.1134 -0 0.475478)
(-176.25 0 16.3023)
(-13.813 0 -11.695)
(4.93592 0 -6.15081)
(31.6635 0 -52.4361)
(1.26723 0 10.2169)
(-11.5182 -0 -10.5244)
(-9.33305 -0 -10.5422)
(-10.1609 -0 -10.7513)
(-38.8527 -0 -48.1908)
(10.8869 0 5.85292)
(-36.7007 -0 -11.7616)
(-11.6233 -0 4.73191)
(-2.97157 -0 -17.2442)
(-1.75369 -0 -18.0539)
(-0.823334 -0 -17.6526)
(-0.244884 -0 -17.247)
(-0.137039 -0 -16.314)
(0.303011 -0 -16.1904)
(-2.77949 -0 1.47486)
(11.5489 -0 11.9518)
(1.36677 -0 6.32857)
(-0.570087 -0 6.68029)
(27.2371 -0 -1.1732)
(-12.017 0 -6.04209)
(-4.90002 0 -3.74938)
(-8.1619 0 -5.49665)
(-9.34446 0 -6.61603)
(-9.36781 0 -7.08679)
(-9.38367 0 -7.10171)
(-9.82397 0 -7.09412)
(-9.89905 0 -7.1639)
(-9.65375 0 -7.39738)
(-9.79486 0 -7.01291)
(-9.70354 0 -6.74499)
(-9.94365 0 -5.92235)
(-10.137 0 -4.68028)
(-9.97405 0 -2.15978)
(-10.0337 0 -0.0354531)
(-9.94871 0 -0.312942)
(-9.3272 0 -0.505328)
(-12.4662 0 1.69515)
(-11.2159 0 0.937375)
(-11.2614 0 0.145524)
(-10.4015 0 0.146033)
(-9.2932 0 0.633034)
(-9.79012 0 0.468923)
(-9.95835 0 0.527739)
(-10.0171 0 0.460975)
(-10.0041 0 0.391615)
(-9.76537 0 0.439195)
(-9.97952 0 0.209129)
(-9.9686 0 0.271051)
(-10.034 0 0.51868)
(-9.80845 0 0.624372)
(-9.85756 0 0.912527)
(-10.0069 0 1.51411)
(-9.73754 0 2.41873)
(-9.8597 0 4.45503)
(-9.5082 0 5.31559)
(-9.86881 0 7.88937)
(-9.82443 0 10.1798)
(-9.60899 0 12.3171)
(-8.26124 0 11.2864)
(-9.4804 0 15.3069)
(-9.50515 0 12.9257)
(-9.52172 0 8.05291)
(-9.83505 0 3.80754)
(-10.2307 0 2.17367)
(-10.0767 0 2.11776)
(-9.87715 0 2.29658)
(-9.76602 0 2.62363)
(-9.82223 0 3.27263)
(-9.79345 0 4.05933)
(-9.74268 0 5.05897)
(-9.78166 0 5.96312)
(-9.85736 0 6.35511)
(-9.94172 0 6.17212)
(-9.74831 0 5.05777)
(-9.77702 0 4.24481)
(-9.64714 0 3.42527)
(-9.50029 0 2.87402)
(-9.81235 0 3.46979)
(6.66436 -0 -21.4661)
(-1.64806 -0 2.19697)
(-0.611717 -0 9.77465)
(-9.83694 -0 -6.7205)
(-5.09685 -0 1.44605)
(-15.8736 0 -16.5359)
(-8.56233 0 11.7106)
(19.0871 -0 60.0837)
(8.3276 -0 34.8154)
(2.21823 0 -72.6093)
(-543.064 -0 984.158)
(-9.86136 -0 11.7018)
(-13.6343 -0 21.0828)
(-17.1635 -0 52.3332)
(-10.1197 -0 20.6289)
(-3.75595 -0 11.589)
(-8.83699 -0 11.4334)
(-10.1503 -0 10.6467)
(-10.0897 -0 10.1609)
(-10.0741 -0 9.97885)
(-10.1013 -0 9.97056)
(-10.0431 -0 10.2099)
(-9.03882 0 10.0151)
(-10.0041 0 9.94679)
(4.02185 0 1.43879)
(4.09286 0 1.7914)
(17.3883 0 -1.34863)
(-18.1882 -0 15.3759)
(22.5787 -0 23.0774)
(26.2617 -0 21.2669)
(-17.7854 0 -11.3426)
(2.46424 0 4.51823)
(7.31562 0 28.6938)
(5.30986 0 8.66884)
(-2.83589 -0 2.05847)
(-6.55137 -0 2.62043)
(-9.68414 -0 19.3985)
(-7.92333 0 -18.8432)
(-10.714 0 -8.15855)
(-2.20897 -0 8.33842)
(-5.76804 -0 3.17458)
(-8.69817 -0 0.369423)
(32.7616 0 24.3738)
(-25.8021 -0 -26.0315)
(-9.02847 -0 -15.8112)
(0.217699 0 40.3056)
(-6.47328 0 2.0006)
(8.36206 -0 23.4931)
(-9.0858 0 -3.0667)
(-9.68359 0 -3.93761)
(-9.85114 0 -1.4997)
(-10.0229 0 -2.28166)
(-11.4865 0 -4.4185)
(-9.25833 -0 -7.98439)
(-8.9528 -0 -9.72994)
(-9.39061 -0 -10.2003)