/*--------------------------------*- C++ -*----------------------------------*\
  =========                 |
  \\      /  F ield         | OpenFOAM: The Open Source CFD Toolbox
   \\    /   O peration     | Website:  https://openfoam.org
    \\  /    A nd           | Version:  9
     \\/     M anipulation  |
\*---------------------------------------------------------------------------*/
FoamFile
{
    format      ascii;
    class       volVectorField;
    location    "2.45";
    object      U;
}
// * * * * * * * * * * * * * * * * * * * * * * * * * * * * * * * * * * * * * //

dimensions      [0 1 -1 0 0 0 0];

internalField   nonuniform List<vector> 
1000
(
(0.131759 0 0)
(0.131703 0 0)
(0.13176 0 0)
(0.1317 0 0)
(0.131761 0 0)
(0.131697 0 0)
(0.131762 0 0)
(0.131694 0 0)
(0.131763 0 0)
(0.131691 0 0)
(0.131764 0 0)
(0.131688 0 0)
(0.131765 0 0)
(0.131685 0 0)
(0.131765 0 0)
(0.131682 0 0)
(0.131766 0 0)
(0.131678 0 0)
(0.131766 0 0)
(0.131675 0 0)
(0.131767 0 0)
(0.131672 0 0)
(0.131767 0 0)
(0.131668 0 0)
(0.131767 0 0)
(0.131665 0 0)
(0.131767 0 0)
(0.131661 0 0)
(0.131767 0 0)
(0.131658 0 0)
(0.131766 0 0)
(0.131654 0 0)
(0.131766 0 0)
(0.131651 0 0)
(0.131765 0 0)
(0.131648 0 0)
(0.131764 0 0)
(0.131644 0 0)
(0.131763 0 0)
(0.131641 0 0)
(0.131762 0 0)
(0.131639 0 0)
(0.131761 0 0)
(0.131636 0 0)
(0.13176 0 0)
(0.131634 0 0)
(0.131759 0 0)
(0.131633 0 0)
(0.131759 0 0)
(0.131631 0 0)
(0.131758 0 0)
(0.13163 0 0)
(0.131757 0 0)
(0.13163 0 0)
(0.131757 0 0)
(0.13163 0 0)
(0.131756 0 0)
(0.131631 0 0)
(0.131757 0 0)
(0.131633 0 0)
(0.131757 0 0)
(0.131636 0 0)
(0.131758 0 0)
(0.131639 0 0)
(0.13176 0 0)
(0.131644 0 0)
(0.131763 0 0)
(0.13165 0 0)
(0.131766 0 0)
(0.131656 0 0)
(0.131771 0 0)
(0.131665 0 0)
(0.131776 0 0)
(0.131674 0 0)
(0.131783 0 0)
(0.131685 0 0)
(0.131791 0 0)
(0.131698 0 0)
(0.1318 0 0)
(0.131712 0 0)
(0.131811 0 0)
(0.131728 0 0)
(0.131824 0 0)
(0.131745 0 0)
(0.131841 0 0)
(0.131762 0 0)
(0.131864 0 0)
(0.131774 0 0)
(0.131899 0 0)
(0.131776 0 0)
(0.131954 0 0)
(0.131763 0 0)
(0.132033 0 0)
(0.131743 0 0)
(0.132122 0 0)
(0.131757 0 0)
(0.132187 0 0)
(0.131853 0 0)
(0.13222 0 0)
(0.132025 0 0)
(0.132277 0 0)
(0.1322 0 0)
(0.132384 0 0)
(0.132348 0 0)
(0.132504 0 0)
(0.13247 0 0)
(0.132607 0 0)
(0.132567 0 0)
(0.132686 0 0)
(0.132641 0 0)
(0.132744 0 0)
(0.132697 0 0)
(0.132787 0 0)
(0.132742 0 0)
(0.132823 0 0)
(0.132782 0 0)
(0.132857 0 0)
(0.132821 0 0)
(0.132891 0 0)
(0.13286 0 0)
(0.132925 0 0)
(0.132901 0 0)
(0.132962 0 0)
(0.132943 0 0)
(0.133001 0 0)
(0.132987 0 0)
(0.133041 0 0)
(0.133032 0 0)
(0.133083 0 0)
(0.133079 0 0)
(0.133127 0 0)
(0.133127 0 0)
(0.133172 0 0)
(0.133176 0 0)
(0.133218 0 0)
(0.133226 0 0)
(0.133266 0 0)
(0.133277 0 0)
(0.133315 0 0)
(0.133328 0 0)
(0.133364 0 0)
(0.133381 0 0)
(0.133415 0 0)
(0.133433 0 0)
(0.133466 0 0)
(0.133486 0 0)
(0.133517 0 0)
(0.133539 0 0)
(0.133568 0 0)
(0.133592 0 0)
(0.13362 0 0)
(0.133644 0 0)
(0.133671 0 0)
(0.133696 0 0)
(0.133721 0 0)
(0.133748 0 0)
(0.133772 0 0)
(0.133798 0 0)
(0.133821 0 0)
(0.133847 0 0)
(0.133869 0 0)
(0.133896 0 0)
(0.133916 0 0)
(0.133942 0 0)
(0.133962 0 0)
(0.133988 0 0)
(0.134006 0 0)
(0.134031 0 0)
(0.134048 0 0)
(0.134073 0 0)
(0.134088 0 0)
(0.134112 0 0)
(0.134127 0 0)
(0.134149 0 0)
(0.134162 0 0)
(0.134184 0 0)
(0.134196 0 0)
(0.134216 0 0)
(0.134226 0 0)
(0.134245 0 0)
(0.134254 0 0)
(0.134271 0 0)
(0.134279 0 0)
(0.134295 0 0)
(0.134301 0 0)
(0.134316 0 0)
(0.134319 0 0)
(0.134333 0 0)
(0.134333 0 0)
(0.134348 0 0)
(0.134343 0 0)
(0.134359 0 0)
(0.134351 0 0)
(0.134365 0 0)
(0.134357 0 0)
(0.134367 0 0)
(0.134361 0 0)
(0.134368 0 0)
(0.134364 0 0)
(0.134372 0 0)
(0.134371 0 0)
(0.134379 0 0)
(0.134375 0 0)
(0.134367 0 0)
(0.134329 0 0)
(0.134273 0 0)
(0.134184 0 0)
(0.134089 0 0)
(0.133988 0 0)
(0.133905 0 0)
(0.133833 0 0)
(0.133784 0 0)
(0.133744 0 0)
(0.133721 0 0)
(0.133699 0 0)
(0.133687 0 0)
(0.133673 0 0)
(0.133664 0 0)
(0.133651 0 0)
(0.133643 0 0)
(0.13363 0 0)
(0.13362 0 0)
(0.133606 0 0)
(0.133595 0 0)
(0.13358 0 0)
(0.133567 0 0)
(0.133551 0 0)
(0.133537 0 0)
(0.13352 0 0)
(0.133505 0 0)
(0.133487 0 0)
(0.13347 0 0)
(0.133451 0 0)
(0.133433 0 0)
(0.133414 0 0)
(0.133395 0 0)
(0.133374 0 0)
(0.133354 0 0)
(0.133333 0 0)
(0.133312 0 0)
(0.13329 0 0)
(0.133268 0 0)
(0.133246 0 0)
(0.133223 0 0)
(0.1332 0 0)
(0.133177 0 0)
(0.133154 0 0)
(0.13313 0 0)
(0.133106 0 0)
(0.133082 0 0)
(0.133058 0 0)
(0.133034 0 0)
(0.133009 0 0)
(0.132985 0 0)
(0.13296 0 0)
(0.132936 0 0)
(0.132911 0 0)
(0.132887 0 0)
(0.132862 0 0)
(0.132837 0 0)
(0.132813 0 0)
(0.132788 0 0)
(0.132764 0 0)
(0.13274 0 0)
(0.132716 0 0)
(0.132692 0 0)
(0.132668 0 0)
(0.132644 0 0)
(0.132621 0 0)
(0.132597 0 0)
(0.132574 0 0)
(0.132552 0 0)
(0.132529 0 0)
(0.132507 0 0)
(0.132485 0 0)
(0.132463 0 0)
(0.132442 0 0)
(0.132421 0 0)
(0.1324 0 0)
(0.132379 0 0)
(0.132359 0 0)
(0.132339 0 0)
(0.13232 0 0)
(0.132301 0 0)
(0.132282 0 0)
(0.132264 0 0)
(0.132246 0 0)
(0.132228 0 0)
(0.132211 0 0)
(0.132194 0 0)
(0.132178 0 0)
(0.132162 0 0)
(0.132146 0 0)
(0.132131 0 0)
(0.132116 0 0)
(0.132101 0 0)
(0.132087 0 0)
(0.132073 0 0)
(0.13206 0 0)
(0.132047 0 0)
(0.132034 0 0)
(0.132022 0 0)
(0.13201 0 0)
(0.131999 0 0)
(0.131987 0 0)
(0.131977 0 0)
(0.131966 0 0)
(0.131956 0 0)
(0.131946 0 0)
(0.131937 0 0)
(0.131928 0 0)
(0.131919 0 0)
(0.131911 0 0)
(0.131902 0 0)
(0.131895 0 0)
(0.131887 0 0)
(0.13188 0 0)
(0.131873 0 0)
(0.131866 0 0)
(0.13186 0 0)
(0.131853 0 0)
(0.131848 0 0)
(0.131842 0 0)
(0.131836 0 0)
(0.131831 0 0)
(0.131826 0 0)
(0.131822 0 0)
(0.131817 0 0)
(0.131813 0 0)
(0.131809 0 0)
(0.131805 0 0)
(0.131801 0 0)
(0.131797 0 0)
(0.131794 0 0)
(0.131791 0 0)
(0.131788 0 0)
(0.131785 0 0)
(0.131782 0 0)
(0.131779 0 0)
(0.131777 0 0)
(0.131774 0 0)
(0.131772 0 0)
(0.13177 0 0)
(0.131768 0 0)
(0.131766 0 0)
(0.131764 0 0)
(0.131763 0 0)
(0.131761 0 0)
(0.13176 0 0)
(0.131758 0 0)
(0.131757 0 0)
(0.131756 0 0)
(0.131754 0 0)
(0.131753 0 0)
(0.131752 0 0)
(0.131751 0 0)
(0.13175 0 0)
(0.13175 0 0)
(0.131749 0 0)
(0.131748 0 0)
(0.131747 0 0)
(0.131747 0 0)
(0.131746 0 0)
(0.131745 0 0)
(0.131745 0 0)
(0.131744 0 0)
(0.131744 0 0)
(0.131743 0 0)
(0.131743 0 0)
(0.131743 0 0)
(0.131742 0 0)
(0.131742 0 0)
(0.131742 0 0)
(0.131741 0 0)
(0.131741 0 0)
(0.131741 0 0)
(0.131741 0 0)
(0.13174 0 0)
(0.13174 0 0)
(0.13174 0 0)
(0.13174 0 0)
(0.13174 0 0)
(0.13174 0 0)
(0.131739 0 0)
(0.131739 0 0)
(0.131739 0 0)
(0.131739 0 0)
(0.131739 0 0)
(0.131739 0 0)
(0.131739 0 0)
(0.131739 0 0)
(0.131739 0 0)
(0.131739 0 0)
(0.131739 0 0)
(0.131739 0 0)
(0.131738 0 0)
(0.131738 0 0)
(0.131738 0 0)
(0.131738 0 0)
(0.131738 0 0)
(0.131738 0 0)
(0.131738 0 0)
(0.131738 0 0)
(0.131738 0 0)
(0.131738 0 0)
(0.131738 0 0)
(0.131738 0 0)
(0.131738 0 0)
(0.131738 0 0)
(0.131738 0 0)
(0.131738 0 0)
(0.131738 0 0)
(0.131738 0 0)
(0.131738 0 0)
(0.131738 0 0)
(0.131738 0 0)
(0.131738 0 0)
(0.131738 0 0)
(0.131738 0 0)
(0.131738 0 0)
(0.131738 0 0)
(0.131738 0 0)
(0.131738 0 0)
(0.131738 0 0)
(0.131738 0 0)
(0.131738 0 0)
(0.131738 0 0)
(0.131738 0 0)
(0.131738 0 0)
(0.131738 0 0)
(0.131738 0 0)
(0.131738 0 0)
(0.131738 0 0)
(0.131738 0 0)
(0.131738 0 0)
(0.131738 0 0)
(0.131738 0 0)
(0.131738 0 0)
(0.131738 0 0)
(0.131738 0 0)
(0.131738 0 0)
(0.131738 0 0)
(0.131738 0 0)
(0.131738 0 0)
(0.131738 0 0)
(0.131738 0 0)
(0.131738 0 0)
(0.131738 0 0)
(0.131738 0 0)
(0.131738 0 0)
(0.131738 0 0)
(0.131738 0 0)
(0.131738 0 0)
(0.131738 0 0)
(0.131738 0 0)
(0.131738 0 0)
(0.131738 0 0)
(0.131738 0 0)
(0.131738 0 0)
(0.131738 0 0)
(0.131738 0 0)
(0.131738 0 0)
(0.131738 0 0)
(0.131738 0 0)
(0.131738 0 0)
(0.131738 0 0)
(0.131738 0 0)
(0.131738 0 0)
(0.131738 0 0)
(0.131738 0 0)
(0.131738 0 0)
(0.131738 0 0)
(0.131738 0 0)
(0.131738 0 0)
(0.131738 0 0)
(0.131738 0 0)
(0.131738 0 0)
(0.131738 0 0)
(0.131738 0 0)
(0.131738 0 0)
(0.131738 0 0)
(0.131738 0 0)
(0.131738 0 0)
(0.131738 0 0)
(0.131738 0 0)
(0.131738 0 0)
(0.131738 0 0)
(0.131738 0 0)
(0.131738 0 0)
(0.131738 0 0)
(0.131738 0 0)
(0.131738 0 0)
(0.131738 0 0)
(0.131738 0 0)
(0.131738 0 0)
(0.131738 0 0)
(0.131738 0 0)
(0.131738 0 0)
(0.131738 0 0)
(0.131738 0 0)
(0.131738 0 0)
(0.131738 0 0)
(0.131738 0 0)
(0.131738 0 0)
(0.131738 0 0)
(0.131738 0 0)
(0.131738 0 0)
(0.131738 0 0)
(0.131738 0 0)
(0.131738 0 0)
(0.131738 0 0)
(0.131738 0 0)
(0.131738 0 0)
(0.131738 0 0)
(0.131738 0 0)
(0.131738 0 0)
(0.131738 0 0)
(0.131738 0 0)
(0.131738 0 0)
(0.131738 0 0)
(0.131738 0 0)
(0.131738 0 0)
(0.131738 0 0)
(0.131738 0 0)
(0.131738 0 0)
(0.131738 0 0)
(0.131738 0 0)
(0.131738 0 0)
(0.131738 0 0)
(0.131738 0 0)
(0.131738 0 0)
(0.131738 0 0)
(0.131738 0 0)
(0.131738 0 0)
(0.131738 0 0)
(0.131738 0 0)
(0.131738 0 0)
(0.131738 0 0)
(0.131738 0 0)
(0.131738 0 0)
(0.131738 0 0)
(0.131738 0 0)
(0.131738 0 0)
(0.131738 0 0)
(0.131738 0 0)
(0.131738 0 0)
(0.131738 0 0)
(0.131738 0 0)
(0.131738 0 0)
(0.131738 0 0)
(0.131738 0 0)
(0.131738 0 0)
(0.131738 0 0)
(0.131738 0 0)
(0.131738 0 0)
(0.131738 0 0)
(0.131738 0 0)
(0.131738 0 0)
(0.131738 0 0)
(0.131738 0 0)
(0.131738 0 0)
(0.131738 0 0)
(0.131738 0 0)
(0.131738 0 0)
(0.131738 0 0)
(0.131738 0 0)
(0.131738 0 0)
(0.131738 0 0)
(0.131738 0 0)
(0.131738 0 0)
(0.131738 0 0)
(0.131738 0 0)
(0.131738 0 0)
(0.131738 0 0)
(0.131738 0 0)
(0.131738 0 0)
(0.131738 0 0)
(0.131738 0 0)
(0.131738 0 0)
(0.131738 0 0)
(0.131738 0 0)
(0.131738 0 0)
(0.131738 0 0)
(0.131738 0 0)
(0.131738 0 0)
(0.131738 0 0)
(0.131738 0 0)
(0.131738 0 0)
(0.131738 0 0)
(0.131738 0 0)
(0.131738 0 0)
(0.131738 0 0)
(0.131738 0 0)
(0.131738 0 0)
(0.131738 0 0)
(0.131738 0 0)
(0.131738 0 0)
(0.131738 0 0)
(0.131738 0 0)
(0.131738 0 0)
(0.131738 0 0)
(0.131738 0 0)
(0.131738 0 0)
(0.131738 0 0)
(0.131738 0 0)
(0.131738 0 0)
(0.131738 0 0)
(0.131738 0 0)
(0.131738 0 0)
(0.131738 0 0)
(0.131738 0 0)
(0.131738 0 0)
(0.131738 0 0)
(0.131738 0 0)
(0.131738 0 0)
(0.131738 0 0)
(0.131738 0 0)
(0.131738 0 0)
(0.131738 0 0)
(0.131738 0 0)
(0.131738 0 0)
(0.131738 0 0)
(0.131738 0 0)
(0.131738 0 0)
(0.131738 0 0)
(0.131738 0 0)
(0.131738 0 0)
(0.131738 0 0)
(0.131738 0 0)
(0.131738 0 0)
(0.131738 0 0)
(0.131738 0 0)
(0.131738 0 0)
(0.131738 0 0)
(0.131738 0 0)
(0.131738 0 0)
(0.131738 0 0)
(0.131738 0 0)
(0.131738 0 0)
(0.131738 0 0)
(0.131738 0 0)
(0.131738 0 0)
(0.131738 0 0)
(0.131738 0 0)
(0.131738 0 0)
(0.131738 0 0)
(0.131738 0 0)
(0.131738 0 0)
(0.131738 0 0)
(0.131738 0 0)
(0.131738 0 0)
(0.131738 0 0)
(0.131738 0 0)
(0.131738 0 0)
(0.131738 0 0)
(0.131738 0 0)
(0.131738 0 0)
(0.131738 0 0)
(0.131738 0 0)
(0.131738 0 0)
(0.131738 0 0)
(0.131738 0 0)
(0.131738 0 0)
(0.131738 0 0)
(0.131738 0 0)
(0.131738 0 0)
(0.131738 0 0)
(0.131738 0 0)
(0.131738 0 0)
(0.131738 0 0)
(0.131738 0 0)
(0.131738 0 0)
(0.131738 0 0)
(0.131738 0 0)
(0.131738 0 0)
(0.131738 0 0)
(0.131738 0 0)
(0.131738 0 0)
(0.131738 0 0)
(0.131738 0 0)
(0.131738 0 0)
(0.131738 0 0)
(0.131738 0 0)
(0.131738 0 0)
(0.131738 0 0)
(0.131738 0 0)
(0.131738 0 0)
(0.131738 0 0)
(0.131738 0 0)
(0.131738 0 0)
(0.131738 0 0)
(0.131738 0 0)
(0.131738 0 0)
(0.131738 0 0)
(0.131738 0 0)
(0.131738 0 0)
(0.131738 0 0)
(0.131738 0 0)
(0.131738 0 0)
(0.131738 0 0)
(0.131738 0 0)
(0.131738 0 0)
(0.131738 0 0)
(0.131738 0 0)
(0.131738 0 0)
(0.131738 0 0)
(0.131738 0 0)
(0.131738 0 0)
(0.131738 0 0)
(0.131738 0 0)
(0.131738 0 0)
(0.131738 0 0)
(0.131738 0 0)
(0.131738 0 0)
(0.131738 0 0)
(0.131738 0 0)
(0.131738 0 0)
(0.131738 0 0)
(0.131738 0 0)
(0.131738 0 0)
(0.131738 0 0)
(0.131738 0 0)
(0.131738 0 0)
(0.131738 0 0)
(0.131738 0 0)
(0.131738 0 0)
(0.131738 0 0)
(0.131738 0 0)
(0.131738 0 0)
(0.131738 0 0)
(0.131738 0 0)
(0.131738 0 0)
(0.131738 0 0)
(0.131738 0 0)
(0.131738 0 0)
(0.131738 0 0)
(0.131738 0 0)
(0.131738 0 0)
(0.131738 0 0)
(0.131738 0 0)
(0.131738 0 0)
(0.131738 0 0)
(0.131738 0 0)
(0.131738 0 0)
(0.131738 0 0)
(0.131738 0 0)
(0.131738 0 0)
(0.131738 0 0)
(0.131738 0 0)
(0.131738 0 0)
(0.131738 0 0)
(0.131738 0 0)
(0.131738 0 0)
(0.131738 0 0)
(0.131738 0 0)
(0.131738 0 0)
(0.131738 0 0)
(0.131738 0 0)
(0.131738 0 0)
(0.131738 0 0)
(0.131738 0 0)
(0.131738 0 0)
(0.131738 0 0)
(0.131738 0 0)
(0.131738 0 0)
(0.131738 0 0)
(0.131738 0 0)
(0.131738 0 0)
(0.131738 0 0)
(0.131738 0 0)
(0.131738 0 0)
(0.131738 0 0)
(0.131738 0 0)
(0.131738 0 0)
(0.131738 0 0)
(0.131738 0 0)
(0.131738 0 0)
(0.131738 0 0)
(0.131738 0 0)
(0.131738 0 0)
(0.131738 0 0)
(0.131738 0 0)
(0.131738 0 0)
(0.131738 0 0)
(0.131738 0 0)
(0.131738 0 0)
(0.131738 0 0)
(0.131738 0 0)
(0.131738 0 0)
(0.131738 0 0)
(0.131738 0 0)
(0.131738 0 0)
(0.131738 0 0)
(0.131738 0 0)
(0.131738 0 0)
(0.131738 0 0)
(0.131738 0 0)
(0.131738 0 0)
(0.131738 0 0)
(0.131738 0 0)
(0.131738 0 0)
(0.131738 0 0)
(0.131738 0 0)
(0.131738 0 0)
(0.131738 0 0)
(0.131738 0 0)
(0.131738 0 0)
(0.131738 0 0)
(0.131738 0 0)
(0.131738 0 0)
(0.131738 0 0)
(0.131738 0 0)
(0.131738 0 0)
(0.131738 0 0)
(0.131738 0 0)
(0.131738 0 0)
(0.131738 0 0)
(0.131738 0 0)
(0.131738 0 0)
(0.131738 0 0)
(0.131738 0 0)
(0.131738 0 0)
(0.131738 0 0)
(0.131738 0 0)
(0.131738 0 0)
(0.131738 0 0)
(0.131738 0 0)
(0.131738 0 0)
(0.131738 0 0)
(0.131738 0 0)
(0.131738 0 0)
(0.131738 0 0)
(0.131738 0 0)
(0.131738 0 0)
(0.131738 0 0)
(0.131738 0 0)
(0.131738 0 0)
(0.131738 0 0)
(0.131738 0 0)
(0.131738 0 0)
(0.131738 0 0)
(0.131738 0 0)
(0.131738 0 0)
(0.131738 0 0)
(0.131738 0 0)
(0.131738 0 0)
(0.131738 0 0)
(0.131738 0 0)
(0.131738 0 0)
(0.131738 0 0)
(0.131738 0 0)
(0.131738 0 0)
(0.131738 0 0)
(0.131738 0 0)
(0.131738 0 0)
(0.131738 0 0)
(0.131738 0 0)
(0.131738 0 0)
(0.131738 0 0)
(0.131738 0 0)
(0.131738 0 0)
(0.131738 0 0)
(0.131738 0 0)
(0.131738 0 0)
(0.131738 0 0)
(0.131738 0 0)
(0.131738 0 0)
(0.131738 0 0)
(0.131738 0 0)
(0.131738 0 0)
(0.131738 0 0)
(0.131738 0 0)
(0.131738 0 0)
(0.131738 0 0)
(0.131738 0 0)
(0.131738 0 0)
(0.131738 0 0)
(0.131738 0 0)
(0.131738 0 0)
(0.131738 0 0)
(0.131738 0 0)
(0.131738 0 0)
(0.131738 0 0)
(0.131738 0 0)
(0.131738 0 0)
(0.131738 0 0)
(0.131738 0 0)
(0.131738 0 0)
(0.131738 0 0)
(0.131738 0 0)
(0.131738 0 0)
(0.131738 0 0)
(0.131738 0 0)
(0.131738 0 0)
(0.131738 0 0)
(0.131738 0 0)
(0.131738 0 0)
(0.131738 0 0)
(0.131738 0 0)
(0.131738 0 0)
(0.131738 0 0)
(0.131738 0 0)
(0.131738 0 0)
(0.131738 0 0)
(0.131738 0 0)
(0.131738 0 0)
(0.131738 0 0)
(0.131738 0 0)
(0.131738 0 0)
(0.131738 0 0)
(0.131738 0 0)
(0.131738 0 0)
(0.131738 0 0)
(0.131738 0 0)
(0.131738 0 0)
(0.131738 0 0)
(0.131738 0 0)
(0.131738 0 0)
(0.131738 0 0)
(0.131738 0 0)
(0.131738 0 0)
(0.131738 0 0)
(0.131738 0 0)
(0.131738 0 0)
(0.131738 0 0)
(0.131738 0 0)
(0.131738 0 0)
(0.131737 0 0)
(0.131739 0 0)
(0.131737 0 0)
(0.131739 0 0)
(0.131737 0 0)
(0.131739 0 0)
(0.131737 0 0)
(0.131739 0 0)
(0.131737 0 0)
(0.131739 0 0)
(0.131737 0 0)
(0.131739 0 0)
(0.131737 0 0)
(0.131739 0 0)
(0.131736 0 0)
(0.13174 0 0)
(0.131736 0 0)
(0.13174 0 0)
(0.131736 0 0)
(0.13174 0 0)
(0.131736 0 0)
(0.13174 0 0)
(0.131735 0 0)
(0.13174 0 0)
(0.131735 0 0)
(0.131741 0 0)
(0.131735 0 0)
(0.131741 0 0)
(0.131734 0 0)
(0.131742 0 0)
(0.131734 0 0)
(0.131742 0 0)
(0.131733 0 0)
(0.131742 0 0)
(0.131733 0 0)
(0.131743 0 0)
(0.131732 0 0)
(0.131743 0 0)
(0.131731 0 0)
(0.131744 0 0)
(0.13173 0 0)
(0.131745 0 0)
(0.13173 0 0)
(0.131745 0 0)
(0.131729 0 0)
(0.131746 0 0)
(0.131728 0 0)
(0.131747 0 0)
(0.131727 0 0)
(0.131748 0 0)
(0.131725 0 0)
(0.131748 0 0)
(0.131724 0 0)
(0.131749 0 0)
(0.131723 0 0)
(0.13175 0 0)
(0.131721 0 0)
(0.131751 0 0)
(0.13172 0 0)
(0.131752 0 0)
(0.131718 0 0)
(0.131753 0 0)
(0.131716 0 0)
(0.131754 0 0)
(0.131714 0 0)
(0.131755 0 0)
(0.131712 0 0)
(0.131756 0 0)
(0.13171 0 0)
(0.131757 0 0)
(0.131708 0 0)
(0.131758 0 0)
(0.131705 0 0)
)
;

boundaryField
{
    topWall
    {
        type            empty;
    }
    bottomWall
    {
        type            empty;
    }
    leftAndRight_half1
    {
        type            cyclic;
    }
    leftAndRight_half0
    {
        type            cyclic;
    }
    frontAndBack
    {
        type            empty;
    }
}


// ************************************************************************* //
