/*--------------------------------*- C++ -*----------------------------------*\
  =========                 |
  \\      /  F ield         | OpenFOAM: The Open Source CFD Toolbox
   \\    /   O peration     | Website:  https://openfoam.org
    \\  /    A nd           | Version:  9
     \\/     M anipulation  |
\*---------------------------------------------------------------------------*/
FoamFile
{
    format      ascii;
    class       volScalarField;
    location    "0";
    object      f_8;
}
// * * * * * * * * * * * * * * * * * * * * * * * * * * * * * * * * * * * * * //

dimensions      [1 -3 0 0 0 0 0];

internalField   uniform 0;

boundaryField
{
    inlet
    {
      type              lbmInlet;
      index             8;
      values            uniform 0;
    }
    outlet
    {
      type              lbmOutlet;
      index             8;
      values            uniform 0;
    }
    topWall
    {
        type            lbmWall;
        index           8;
        value           uniform 0;
    }
    bottomWall
    {
        type            lbmWall;
        index           8;
        value           uniform 0;
    }
    frontAndBack
    {
        type            empty;
    }
}

// ************************************************************************* //
