/*--------------------------------*- C++ -*----------------------------------*\
  =========                 |
  \\      /  F ield         | OpenFOAM: The Open Source CFD Toolbox
   \\    /   O peration     | Website:  https://openfoam.org
    \\  /    A nd           | Version:  9
     \\/     M anipulation  |
\*---------------------------------------------------------------------------*/
FoamFile
{
    format      ascii;
    class       volVectorField;
    location    "3.9";
    object      U;
}
// * * * * * * * * * * * * * * * * * * * * * * * * * * * * * * * * * * * * * //

dimensions      [0 1 -1 0 0 0 0];

internalField   nonuniform List<vector> 
1000
(
(0.131767 0 0)
(0.131693 0 0)
(0.131768 0 0)
(0.131691 0 0)
(0.131768 0 0)
(0.13169 0 0)
(0.131769 0 0)
(0.131689 0 0)
(0.131769 0 0)
(0.131687 0 0)
(0.13177 0 0)
(0.131686 0 0)
(0.13177 0 0)
(0.131685 0 0)
(0.131771 0 0)
(0.131684 0 0)
(0.131771 0 0)
(0.131683 0 0)
(0.131771 0 0)
(0.131682 0 0)
(0.131772 0 0)
(0.131681 0 0)
(0.131772 0 0)
(0.13168 0 0)
(0.131772 0 0)
(0.13168 0 0)
(0.131773 0 0)
(0.13168 0 0)
(0.131773 0 0)
(0.13168 0 0)
(0.131774 0 0)
(0.13168 0 0)
(0.131774 0 0)
(0.13168 0 0)
(0.131775 0 0)
(0.131681 0 0)
(0.131776 0 0)
(0.131682 0 0)
(0.131777 0 0)
(0.131684 0 0)
(0.131778 0 0)
(0.131685 0 0)
(0.131779 0 0)
(0.131687 0 0)
(0.131781 0 0)
(0.13169 0 0)
(0.131783 0 0)
(0.131693 0 0)
(0.131785 0 0)
(0.131696 0 0)
(0.131788 0 0)
(0.1317 0 0)
(0.131791 0 0)
(0.131705 0 0)
(0.131794 0 0)
(0.13171 0 0)
(0.131798 0 0)
(0.131716 0 0)
(0.131803 0 0)
(0.131723 0 0)
(0.131808 0 0)
(0.13173 0 0)
(0.131813 0 0)
(0.131738 0 0)
(0.13182 0 0)
(0.131747 0 0)
(0.131827 0 0)
(0.131757 0 0)
(0.131835 0 0)
(0.131768 0 0)
(0.131844 0 0)
(0.131779 0 0)
(0.131854 0 0)
(0.131792 0 0)
(0.131865 0 0)
(0.131806 0 0)
(0.131876 0 0)
(0.131821 0 0)
(0.13189 0 0)
(0.131838 0 0)
(0.131904 0 0)
(0.131855 0 0)
(0.13192 0 0)
(0.131873 0 0)
(0.131939 0 0)
(0.131889 0 0)
(0.131964 0 0)
(0.131901 0 0)
(0.132 0 0)
(0.131902 0 0)
(0.132055 0 0)
(0.131887 0 0)
(0.132134 0 0)
(0.131864 0 0)
(0.132222 0 0)
(0.131874 0 0)
(0.132286 0 0)
(0.131966 0 0)
(0.132316 0 0)
(0.132133 0 0)
(0.13237 0 0)
(0.132302 0 0)
(0.132471 0 0)
(0.132443 0 0)
(0.132586 0 0)
(0.132557 0 0)
(0.132683 0 0)
(0.132644 0 0)
(0.132754 0 0)
(0.132708 0 0)
(0.132803 0 0)
(0.132753 0 0)
(0.132837 0 0)
(0.132786 0 0)
(0.132862 0 0)
(0.132814 0 0)
(0.132884 0 0)
(0.132839 0 0)
(0.132905 0 0)
(0.132864 0 0)
(0.132926 0 0)
(0.13289 0 0)
(0.132949 0 0)
(0.132916 0 0)
(0.132972 0 0)
(0.132943 0 0)
(0.132996 0 0)
(0.132971 0 0)
(0.133021 0 0)
(0.133 0 0)
(0.133047 0 0)
(0.133029 0 0)
(0.133075 0 0)
(0.13306 0 0)
(0.133103 0 0)
(0.133091 0 0)
(0.133131 0 0)
(0.133122 0 0)
(0.133161 0 0)
(0.133154 0 0)
(0.133191 0 0)
(0.133187 0 0)
(0.133222 0 0)
(0.13322 0 0)
(0.133254 0 0)
(0.133254 0 0)
(0.133285 0 0)
(0.133287 0 0)
(0.133318 0 0)
(0.133321 0 0)
(0.13335 0 0)
(0.133355 0 0)
(0.133383 0 0)
(0.133389 0 0)
(0.133415 0 0)
(0.133423 0 0)
(0.133448 0 0)
(0.133457 0 0)
(0.13348 0 0)
(0.13349 0 0)
(0.133513 0 0)
(0.133523 0 0)
(0.133545 0 0)
(0.133556 0 0)
(0.133576 0 0)
(0.133587 0 0)
(0.133607 0 0)
(0.133619 0 0)
(0.133637 0 0)
(0.133649 0 0)
(0.133666 0 0)
(0.133678 0 0)
(0.133694 0 0)
(0.133706 0 0)
(0.133721 0 0)
(0.133733 0 0)
(0.133747 0 0)
(0.133759 0 0)
(0.133772 0 0)
(0.133783 0 0)
(0.133795 0 0)
(0.133806 0 0)
(0.133817 0 0)
(0.133828 0 0)
(0.133837 0 0)
(0.133847 0 0)
(0.133854 0 0)
(0.133866 0 0)
(0.133869 0 0)
(0.133883 0 0)
(0.133882 0 0)
(0.133897 0 0)
(0.133894 0 0)
(0.133909 0 0)
(0.133905 0 0)
(0.133917 0 0)
(0.133916 0 0)
(0.133925 0 0)
(0.133928 0 0)
(0.133938 0 0)
(0.133944 0 0)
(0.133956 0 0)
(0.133959 0 0)
(0.133956 0 0)
(0.133926 0 0)
(0.133875 0 0)
(0.133794 0 0)
(0.133706 0 0)
(0.133613 0 0)
(0.133538 0 0)
(0.133475 0 0)
(0.133434 0 0)
(0.133403 0 0)
(0.133388 0 0)
(0.133377 0 0)
(0.133374 0 0)
(0.13337 0 0)
(0.133371 0 0)
(0.133369 0 0)
(0.133371 0 0)
(0.133369 0 0)
(0.13337 0 0)
(0.133367 0 0)
(0.133368 0 0)
(0.133364 0 0)
(0.133363 0 0)
(0.133359 0 0)
(0.133357 0 0)
(0.133352 0 0)
(0.133349 0 0)
(0.133343 0 0)
(0.133339 0 0)
(0.133332 0 0)
(0.133327 0 0)
(0.133319 0 0)
(0.133314 0 0)
(0.133305 0 0)
(0.133298 0 0)
(0.133289 0 0)
(0.133281 0 0)
(0.133271 0 0)
(0.133263 0 0)
(0.133252 0 0)
(0.133243 0 0)
(0.133231 0 0)
(0.133221 0 0)
(0.133209 0 0)
(0.133198 0 0)
(0.133185 0 0)
(0.133174 0 0)
(0.133161 0 0)
(0.133148 0 0)
(0.133134 0 0)
(0.133121 0 0)
(0.133107 0 0)
(0.133094 0 0)
(0.133079 0 0)
(0.133065 0 0)
(0.13305 0 0)
(0.133035 0 0)
(0.13302 0 0)
(0.133005 0 0)
(0.132989 0 0)
(0.132973 0 0)
(0.132957 0 0)
(0.132941 0 0)
(0.132925 0 0)
(0.132909 0 0)
(0.132892 0 0)
(0.132876 0 0)
(0.132859 0 0)
(0.132843 0 0)
(0.132826 0 0)
(0.132809 0 0)
(0.132792 0 0)
(0.132775 0 0)
(0.132758 0 0)
(0.132741 0 0)
(0.132724 0 0)
(0.132707 0 0)
(0.13269 0 0)
(0.132673 0 0)
(0.132656 0 0)
(0.13264 0 0)
(0.132623 0 0)
(0.132606 0 0)
(0.132589 0 0)
(0.132573 0 0)
(0.132556 0 0)
(0.13254 0 0)
(0.132523 0 0)
(0.132507 0 0)
(0.132491 0 0)
(0.132475 0 0)
(0.132459 0 0)
(0.132443 0 0)
(0.132427 0 0)
(0.132412 0 0)
(0.132396 0 0)
(0.132381 0 0)
(0.132366 0 0)
(0.132351 0 0)
(0.132336 0 0)
(0.132322 0 0)
(0.132307 0 0)
(0.132293 0 0)
(0.132279 0 0)
(0.132266 0 0)
(0.132252 0 0)
(0.132238 0 0)
(0.132225 0 0)
(0.132212 0 0)
(0.132199 0 0)
(0.132187 0 0)
(0.132174 0 0)
(0.132162 0 0)
(0.13215 0 0)
(0.132139 0 0)
(0.132127 0 0)
(0.132116 0 0)
(0.132105 0 0)
(0.132094 0 0)
(0.132083 0 0)
(0.132073 0 0)
(0.132062 0 0)
(0.132052 0 0)
(0.132042 0 0)
(0.132033 0 0)
(0.132023 0 0)
(0.132014 0 0)
(0.132005 0 0)
(0.131997 0 0)
(0.131988 0 0)
(0.13198 0 0)
(0.131971 0 0)
(0.131964 0 0)
(0.131956 0 0)
(0.131948 0 0)
(0.131941 0 0)
(0.131934 0 0)
(0.131927 0 0)
(0.13192 0 0)
(0.131913 0 0)
(0.131907 0 0)
(0.131901 0 0)
(0.131895 0 0)
(0.131889 0 0)
(0.131883 0 0)
(0.131878 0 0)
(0.131872 0 0)
(0.131867 0 0)
(0.131862 0 0)
(0.131857 0 0)
(0.131853 0 0)
(0.131848 0 0)
(0.131844 0 0)
(0.131839 0 0)
(0.131835 0 0)
(0.131831 0 0)
(0.131827 0 0)
(0.131824 0 0)
(0.13182 0 0)
(0.131816 0 0)
(0.131813 0 0)
(0.13181 0 0)
(0.131807 0 0)
(0.131804 0 0)
(0.131801 0 0)
(0.131798 0 0)
(0.131795 0 0)
(0.131793 0 0)
(0.13179 0 0)
(0.131788 0 0)
(0.131786 0 0)
(0.131783 0 0)
(0.131781 0 0)
(0.131779 0 0)
(0.131777 0 0)
(0.131776 0 0)
(0.131774 0 0)
(0.131772 0 0)
(0.13177 0 0)
(0.131769 0 0)
(0.131767 0 0)
(0.131766 0 0)
(0.131764 0 0)
(0.131763 0 0)
(0.131762 0 0)
(0.131761 0 0)
(0.131759 0 0)
(0.131758 0 0)
(0.131757 0 0)
(0.131756 0 0)
(0.131755 0 0)
(0.131754 0 0)
(0.131754 0 0)
(0.131753 0 0)
(0.131752 0 0)
(0.131751 0 0)
(0.131751 0 0)
(0.13175 0 0)
(0.131749 0 0)
(0.131749 0 0)
(0.131748 0 0)
(0.131747 0 0)
(0.131747 0 0)
(0.131746 0 0)
(0.131746 0 0)
(0.131745 0 0)
(0.131745 0 0)
(0.131745 0 0)
(0.131744 0 0)
(0.131744 0 0)
(0.131744 0 0)
(0.131743 0 0)
(0.131743 0 0)
(0.131743 0 0)
(0.131742 0 0)
(0.131742 0 0)
(0.131742 0 0)
(0.131742 0 0)
(0.131741 0 0)
(0.131741 0 0)
(0.131741 0 0)
(0.131741 0 0)
(0.131741 0 0)
(0.13174 0 0)
(0.13174 0 0)
(0.13174 0 0)
(0.13174 0 0)
(0.13174 0 0)
(0.13174 0 0)
(0.13174 0 0)
(0.13174 0 0)
(0.131739 0 0)
(0.131739 0 0)
(0.131739 0 0)
(0.131739 0 0)
(0.131739 0 0)
(0.131739 0 0)
(0.131739 0 0)
(0.131739 0 0)
(0.131739 0 0)
(0.131739 0 0)
(0.131739 0 0)
(0.131739 0 0)
(0.131739 0 0)
(0.131739 0 0)
(0.131739 0 0)
(0.131738 0 0)
(0.131738 0 0)
(0.131738 0 0)
(0.131738 0 0)
(0.131738 0 0)
(0.131738 0 0)
(0.131738 0 0)
(0.131738 0 0)
(0.131738 0 0)
(0.131738 0 0)
(0.131738 0 0)
(0.131738 0 0)
(0.131738 0 0)
(0.131738 0 0)
(0.131738 0 0)
(0.131738 0 0)
(0.131738 0 0)
(0.131738 0 0)
(0.131738 0 0)
(0.131738 0 0)
(0.131738 0 0)
(0.131738 0 0)
(0.131738 0 0)
(0.131738 0 0)
(0.131738 0 0)
(0.131738 0 0)
(0.131738 0 0)
(0.131738 0 0)
(0.131738 0 0)
(0.131738 0 0)
(0.131738 0 0)
(0.131738 0 0)
(0.131738 0 0)
(0.131738 0 0)
(0.131738 0 0)
(0.131738 0 0)
(0.131738 0 0)
(0.131738 0 0)
(0.131738 0 0)
(0.131738 0 0)
(0.131738 0 0)
(0.131738 0 0)
(0.131738 0 0)
(0.131738 0 0)
(0.131738 0 0)
(0.131738 0 0)
(0.131738 0 0)
(0.131738 0 0)
(0.131738 0 0)
(0.131738 0 0)
(0.131738 0 0)
(0.131738 0 0)
(0.131738 0 0)
(0.131738 0 0)
(0.131738 0 0)
(0.131738 0 0)
(0.131738 0 0)
(0.131738 0 0)
(0.131738 0 0)
(0.131738 0 0)
(0.131738 0 0)
(0.131738 0 0)
(0.131738 0 0)
(0.131738 0 0)
(0.131738 0 0)
(0.131738 0 0)
(0.131738 0 0)
(0.131738 0 0)
(0.131738 0 0)
(0.131738 0 0)
(0.131738 0 0)
(0.131738 0 0)
(0.131738 0 0)
(0.131738 0 0)
(0.131738 0 0)
(0.131738 0 0)
(0.131738 0 0)
(0.131738 0 0)
(0.131738 0 0)
(0.131738 0 0)
(0.131738 0 0)
(0.131738 0 0)
(0.131738 0 0)
(0.131738 0 0)
(0.131738 0 0)
(0.131738 0 0)
(0.131738 0 0)
(0.131738 0 0)
(0.131738 0 0)
(0.131738 0 0)
(0.131738 0 0)
(0.131738 0 0)
(0.131738 0 0)
(0.131738 0 0)
(0.131738 0 0)
(0.131738 0 0)
(0.131738 0 0)
(0.131738 0 0)
(0.131738 0 0)
(0.131738 0 0)
(0.131738 0 0)
(0.131738 0 0)
(0.131738 0 0)
(0.131738 0 0)
(0.131738 0 0)
(0.131738 0 0)
(0.131738 0 0)
(0.131738 0 0)
(0.131738 0 0)
(0.131738 0 0)
(0.131738 0 0)
(0.131738 0 0)
(0.131738 0 0)
(0.131738 0 0)
(0.131738 0 0)
(0.131738 0 0)
(0.131738 0 0)
(0.131738 0 0)
(0.131738 0 0)
(0.131738 0 0)
(0.131738 0 0)
(0.131738 0 0)
(0.131738 0 0)
(0.131738 0 0)
(0.131738 0 0)
(0.131738 0 0)
(0.131738 0 0)
(0.131738 0 0)
(0.131738 0 0)
(0.131738 0 0)
(0.131738 0 0)
(0.131738 0 0)
(0.131738 0 0)
(0.131738 0 0)
(0.131738 0 0)
(0.131738 0 0)
(0.131738 0 0)
(0.131738 0 0)
(0.131738 0 0)
(0.131738 0 0)
(0.131738 0 0)
(0.131738 0 0)
(0.131738 0 0)
(0.131738 0 0)
(0.131738 0 0)
(0.131738 0 0)
(0.131738 0 0)
(0.131738 0 0)
(0.131738 0 0)
(0.131738 0 0)
(0.131738 0 0)
(0.131738 0 0)
(0.131738 0 0)
(0.131738 0 0)
(0.131738 0 0)
(0.131738 0 0)
(0.131738 0 0)
(0.131738 0 0)
(0.131738 0 0)
(0.131738 0 0)
(0.131738 0 0)
(0.131738 0 0)
(0.131738 0 0)
(0.131738 0 0)
(0.131738 0 0)
(0.131738 0 0)
(0.131738 0 0)
(0.131738 0 0)
(0.131738 0 0)
(0.131738 0 0)
(0.131738 0 0)
(0.131738 0 0)
(0.131738 0 0)
(0.131738 0 0)
(0.131738 0 0)
(0.131738 0 0)
(0.131738 0 0)
(0.131738 0 0)
(0.131738 0 0)
(0.131738 0 0)
(0.131738 0 0)
(0.131738 0 0)
(0.131738 0 0)
(0.131738 0 0)
(0.131738 0 0)
(0.131738 0 0)
(0.131738 0 0)
(0.131738 0 0)
(0.131738 0 0)
(0.131738 0 0)
(0.131738 0 0)
(0.131738 0 0)
(0.131738 0 0)
(0.131738 0 0)
(0.131738 0 0)
(0.131738 0 0)
(0.131738 0 0)
(0.131738 0 0)
(0.131738 0 0)
(0.131738 0 0)
(0.131738 0 0)
(0.131738 0 0)
(0.131738 0 0)
(0.131738 0 0)
(0.131738 0 0)
(0.131738 0 0)
(0.131738 0 0)
(0.131738 0 0)
(0.131738 0 0)
(0.131738 0 0)
(0.131738 0 0)
(0.131738 0 0)
(0.131738 0 0)
(0.131738 0 0)
(0.131738 0 0)
(0.131738 0 0)
(0.131738 0 0)
(0.131738 0 0)
(0.131738 0 0)
(0.131738 0 0)
(0.131738 0 0)
(0.131738 0 0)
(0.131738 0 0)
(0.131738 0 0)
(0.131738 0 0)
(0.131738 0 0)
(0.131738 0 0)
(0.131738 0 0)
(0.131738 0 0)
(0.131738 0 0)
(0.131738 0 0)
(0.131738 0 0)
(0.131738 0 0)
(0.131738 0 0)
(0.131738 0 0)
(0.131738 0 0)
(0.131738 0 0)
(0.131738 0 0)
(0.131738 0 0)
(0.131738 0 0)
(0.131738 0 0)
(0.131738 0 0)
(0.131738 0 0)
(0.131738 0 0)
(0.131738 0 0)
(0.131738 0 0)
(0.131738 0 0)
(0.131738 0 0)
(0.131738 0 0)
(0.131738 0 0)
(0.131738 0 0)
(0.131738 0 0)
(0.131738 0 0)
(0.131738 0 0)
(0.131738 0 0)
(0.131738 0 0)
(0.131738 0 0)
(0.131738 0 0)
(0.131738 0 0)
(0.131738 0 0)
(0.131738 0 0)
(0.131738 0 0)
(0.131738 0 0)
(0.131738 0 0)
(0.131738 0 0)
(0.131738 0 0)
(0.131738 0 0)
(0.131738 0 0)
(0.131738 0 0)
(0.131738 0 0)
(0.131738 0 0)
(0.131738 0 0)
(0.131738 0 0)
(0.131738 0 0)
(0.131738 0 0)
(0.131738 0 0)
(0.131738 0 0)
(0.131738 0 0)
(0.131738 0 0)
(0.131738 0 0)
(0.131738 0 0)
(0.131738 0 0)
(0.131738 0 0)
(0.131738 0 0)
(0.131738 0 0)
(0.131738 0 0)
(0.131738 0 0)
(0.131738 0 0)
(0.131738 0 0)
(0.131738 0 0)
(0.131738 0 0)
(0.131738 0 0)
(0.131738 0 0)
(0.131738 0 0)
(0.131738 0 0)
(0.131738 0 0)
(0.131738 0 0)
(0.131738 0 0)
(0.131738 0 0)
(0.131738 0 0)
(0.131738 0 0)
(0.131738 0 0)
(0.131738 0 0)
(0.131738 0 0)
(0.131738 0 0)
(0.131738 0 0)
(0.131738 0 0)
(0.131738 0 0)
(0.131738 0 0)
(0.131738 0 0)
(0.131738 0 0)
(0.131738 0 0)
(0.131738 0 0)
(0.131738 0 0)
(0.131738 0 0)
(0.131738 0 0)
(0.131738 0 0)
(0.131738 0 0)
(0.131738 0 0)
(0.131738 0 0)
(0.131738 0 0)
(0.131738 0 0)
(0.131738 0 0)
(0.131738 0 0)
(0.131738 0 0)
(0.131738 0 0)
(0.131738 0 0)
(0.131738 0 0)
(0.131738 0 0)
(0.131738 0 0)
(0.131738 0 0)
(0.131738 0 0)
(0.131738 0 0)
(0.131738 0 0)
(0.131738 0 0)
(0.131738 0 0)
(0.131738 0 0)
(0.131738 0 0)
(0.131738 0 0)
(0.131738 0 0)
(0.131738 0 0)
(0.131738 0 0)
(0.131738 0 0)
(0.131738 0 0)
(0.131738 0 0)
(0.131738 0 0)
(0.131738 0 0)
(0.131738 0 0)
(0.131738 0 0)
(0.131738 0 0)
(0.131738 0 0)
(0.131738 0 0)
(0.131738 0 0)
(0.131738 0 0)
(0.131738 0 0)
(0.131738 0 0)
(0.131738 0 0)
(0.131738 0 0)
(0.131738 0 0)
(0.131738 0 0)
(0.131738 0 0)
(0.131738 0 0)
(0.131738 0 0)
(0.131738 0 0)
(0.131738 0 0)
(0.131738 0 0)
(0.131738 0 0)
(0.131738 0 0)
(0.131738 0 0)
(0.131738 0 0)
(0.131738 0 0)
(0.131738 0 0)
(0.131738 0 0)
(0.131738 0 0)
(0.131738 0 0)
(0.131738 0 0)
(0.131738 0 0)
(0.131738 0 0)
(0.131738 0 0)
(0.131738 0 0)
(0.131738 0 0)
(0.131738 0 0)
(0.131738 0 0)
(0.131738 0 0)
(0.131738 0 0)
(0.131738 0 0)
(0.131738 0 0)
(0.131738 0 0)
(0.131738 0 0)
(0.131738 0 0)
(0.131738 0 0)
(0.131738 0 0)
(0.131738 0 0)
(0.131738 0 0)
(0.131738 0 0)
(0.131738 0 0)
(0.131738 0 0)
(0.131738 0 0)
(0.131738 0 0)
(0.131738 0 0)
(0.131738 0 0)
(0.131738 0 0)
(0.131738 0 0)
(0.131738 0 0)
(0.131738 0 0)
(0.131738 0 0)
(0.131738 0 0)
(0.131738 0 0)
(0.131738 0 0)
(0.131738 0 0)
(0.131738 0 0)
(0.131738 0 0)
(0.131738 0 0)
(0.131738 0 0)
(0.131738 0 0)
(0.131738 0 0)
(0.131738 0 0)
(0.131738 0 0)
(0.131738 0 0)
(0.131738 0 0)
(0.131738 0 0)
(0.131738 0 0)
(0.131738 0 0)
(0.131738 0 0)
(0.131738 0 0)
(0.131738 0 0)
(0.131738 0 0)
(0.131738 0 0)
(0.131738 0 0)
(0.131738 0 0)
(0.131738 0 0)
(0.131738 0 0)
(0.131738 0 0)
(0.131739 0 0)
(0.131737 0 0)
(0.131739 0 0)
(0.131737 0 0)
(0.131739 0 0)
(0.131737 0 0)
(0.131739 0 0)
(0.131737 0 0)
(0.131739 0 0)
(0.131737 0 0)
(0.131739 0 0)
(0.131737 0 0)
(0.131739 0 0)
(0.131737 0 0)
(0.131739 0 0)
(0.131737 0 0)
(0.131739 0 0)
(0.131737 0 0)
(0.131739 0 0)
(0.131737 0 0)
(0.13174 0 0)
(0.131736 0 0)
(0.13174 0 0)
(0.131736 0 0)
(0.13174 0 0)
(0.131736 0 0)
(0.13174 0 0)
(0.131736 0 0)
(0.13174 0 0)
(0.131736 0 0)
(0.13174 0 0)
(0.131735 0 0)
(0.131741 0 0)
(0.131735 0 0)
(0.131741 0 0)
(0.131735 0 0)
(0.131741 0 0)
(0.131734 0 0)
(0.131742 0 0)
(0.131734 0 0)
(0.131742 0 0)
(0.131734 0 0)
(0.131742 0 0)
(0.131733 0 0)
(0.131743 0 0)
(0.131733 0 0)
(0.131743 0 0)
(0.131732 0 0)
(0.131743 0 0)
(0.131732 0 0)
(0.131744 0 0)
(0.131732 0 0)
(0.131744 0 0)
(0.131731 0 0)
(0.131745 0 0)
(0.13173 0 0)
(0.131745 0 0)
(0.13173 0 0)
(0.131746 0 0)
(0.131729 0 0)
(0.131746 0 0)
(0.131728 0 0)
(0.131747 0 0)
(0.131728 0 0)
(0.131747 0 0)
(0.131727 0 0)
(0.131748 0 0)
(0.131726 0 0)
(0.131749 0 0)
(0.131725 0 0)
(0.131749 0 0)
(0.131724 0 0)
(0.13175 0 0)
(0.131724 0 0)
(0.131751 0 0)
(0.131723 0 0)
(0.131751 0 0)
(0.131722 0 0)
(0.131752 0 0)
(0.131721 0 0)
(0.131753 0 0)
(0.131719 0 0)
(0.131754 0 0)
(0.131718 0 0)
(0.131755 0 0)
(0.131717 0 0)
(0.131755 0 0)
(0.131716 0 0)
(0.131756 0 0)
(0.131715 0 0)
(0.131757 0 0)
(0.131713 0 0)
(0.131758 0 0)
(0.131712 0 0)
(0.131759 0 0)
(0.131711 0 0)
(0.131759 0 0)
(0.131709 0 0)
(0.13176 0 0)
(0.131708 0 0)
(0.131761 0 0)
(0.131706 0 0)
(0.131762 0 0)
(0.131705 0 0)
(0.131763 0 0)
(0.131703 0 0)
(0.131763 0 0)
(0.131702 0 0)
(0.131764 0 0)
(0.1317 0 0)
(0.131765 0 0)
(0.131699 0 0)
(0.131766 0 0)
(0.131697 0 0)
(0.131766 0 0)
(0.131696 0 0)
(0.131767 0 0)
(0.131694 0 0)
)
;

boundaryField
{
    topWall
    {
        type            empty;
    }
    bottomWall
    {
        type            empty;
    }
    leftAndRight_half1
    {
        type            cyclic;
    }
    leftAndRight_half0
    {
        type            cyclic;
    }
    frontAndBack
    {
        type            empty;
    }
}


// ************************************************************************* //
