/*--------------------------------*- C++ -*----------------------------------*\
  =========                 |
  \\      /  F ield         | OpenFOAM: The Open Source CFD Toolbox
   \\    /   O peration     | Website:  https://openfoam.org
    \\  /    A nd           | Version:  9
     \\/     M anipulation  |
\*---------------------------------------------------------------------------*/
FoamFile
{
    format      ascii;
    class       volVectorField;
    location    "2.6";
    object      U;
}
// * * * * * * * * * * * * * * * * * * * * * * * * * * * * * * * * * * * * * //

dimensions      [0 1 -1 0 0 0 0];

internalField   nonuniform List<vector> 
1000
(
(0.131761 0 0)
(0.1317 0 0)
(0.131762 0 0)
(0.131698 0 0)
(0.131763 0 0)
(0.131695 0 0)
(0.131763 0 0)
(0.131692 0 0)
(0.131764 0 0)
(0.13169 0 0)
(0.131765 0 0)
(0.131687 0 0)
(0.131766 0 0)
(0.131684 0 0)
(0.131766 0 0)
(0.131681 0 0)
(0.131767 0 0)
(0.131677 0 0)
(0.131767 0 0)
(0.131674 0 0)
(0.131767 0 0)
(0.131671 0 0)
(0.131767 0 0)
(0.131668 0 0)
(0.131767 0 0)
(0.131665 0 0)
(0.131767 0 0)
(0.131662 0 0)
(0.131767 0 0)
(0.131659 0 0)
(0.131767 0 0)
(0.131656 0 0)
(0.131766 0 0)
(0.131653 0 0)
(0.131766 0 0)
(0.13165 0 0)
(0.131765 0 0)
(0.131648 0 0)
(0.131764 0 0)
(0.131645 0 0)
(0.131764 0 0)
(0.131643 0 0)
(0.131763 0 0)
(0.131642 0 0)
(0.131762 0 0)
(0.13164 0 0)
(0.131762 0 0)
(0.131639 0 0)
(0.131761 0 0)
(0.131639 0 0)
(0.131761 0 0)
(0.131638 0 0)
(0.13176 0 0)
(0.131639 0 0)
(0.13176 0 0)
(0.13164 0 0)
(0.131761 0 0)
(0.131642 0 0)
(0.131762 0 0)
(0.131644 0 0)
(0.131763 0 0)
(0.131648 0 0)
(0.131765 0 0)
(0.131652 0 0)
(0.131768 0 0)
(0.131658 0 0)
(0.131771 0 0)
(0.131664 0 0)
(0.131775 0 0)
(0.131672 0 0)
(0.13178 0 0)
(0.13168 0 0)
(0.131786 0 0)
(0.131691 0 0)
(0.131794 0 0)
(0.131702 0 0)
(0.131802 0 0)
(0.131715 0 0)
(0.131812 0 0)
(0.13173 0 0)
(0.131824 0 0)
(0.131746 0 0)
(0.131838 0 0)
(0.131764 0 0)
(0.131855 0 0)
(0.13178 0 0)
(0.131879 0 0)
(0.131793 0 0)
(0.131914 0 0)
(0.131795 0 0)
(0.131969 0 0)
(0.131781 0 0)
(0.132048 0 0)
(0.131761 0 0)
(0.132137 0 0)
(0.131774 0 0)
(0.132202 0 0)
(0.13187 0 0)
(0.132235 0 0)
(0.132042 0 0)
(0.132292 0 0)
(0.132216 0 0)
(0.132398 0 0)
(0.132363 0 0)
(0.132517 0 0)
(0.132484 0 0)
(0.13262 0 0)
(0.132579 0 0)
(0.132697 0 0)
(0.132651 0 0)
(0.132754 0 0)
(0.132706 0 0)
(0.132796 0 0)
(0.132749 0 0)
(0.13283 0 0)
(0.132788 0 0)
(0.132862 0 0)
(0.132825 0 0)
(0.132894 0 0)
(0.132862 0 0)
(0.132927 0 0)
(0.1329 0 0)
(0.132961 0 0)
(0.13294 0 0)
(0.132998 0 0)
(0.132982 0 0)
(0.133036 0 0)
(0.133024 0 0)
(0.133075 0 0)
(0.133068 0 0)
(0.133116 0 0)
(0.133114 0 0)
(0.133159 0 0)
(0.13316 0 0)
(0.133203 0 0)
(0.133207 0 0)
(0.133248 0 0)
(0.133255 0 0)
(0.133294 0 0)
(0.133304 0 0)
(0.133341 0 0)
(0.133354 0 0)
(0.133388 0 0)
(0.133404 0 0)
(0.133436 0 0)
(0.133454 0 0)
(0.133485 0 0)
(0.133504 0 0)
(0.133534 0 0)
(0.133555 0 0)
(0.133583 0 0)
(0.133605 0 0)
(0.133631 0 0)
(0.133654 0 0)
(0.13368 0 0)
(0.133703 0 0)
(0.133728 0 0)
(0.133752 0 0)
(0.133775 0 0)
(0.133799 0 0)
(0.133821 0 0)
(0.133846 0 0)
(0.133866 0 0)
(0.133891 0 0)
(0.13391 0 0)
(0.133935 0 0)
(0.133953 0 0)
(0.133977 0 0)
(0.133994 0 0)
(0.134017 0 0)
(0.134033 0 0)
(0.134055 0 0)
(0.13407 0 0)
(0.134092 0 0)
(0.134105 0 0)
(0.134126 0 0)
(0.134138 0 0)
(0.134157 0 0)
(0.134169 0 0)
(0.134186 0 0)
(0.134196 0 0)
(0.134213 0 0)
(0.134221 0 0)
(0.134236 0 0)
(0.134243 0 0)
(0.134257 0 0)
(0.134261 0 0)
(0.134276 0 0)
(0.134276 0 0)
(0.134291 0 0)
(0.134287 0 0)
(0.134303 0 0)
(0.134296 0 0)
(0.13431 0 0)
(0.134303 0 0)
(0.134314 0 0)
(0.134308 0 0)
(0.134316 0 0)
(0.134313 0 0)
(0.134321 0 0)
(0.134321 0 0)
(0.13433 0 0)
(0.134327 0 0)
(0.13432 0 0)
(0.134283 0 0)
(0.134228 0 0)
(0.13414 0 0)
(0.134047 0 0)
(0.133947 0 0)
(0.133865 0 0)
(0.133794 0 0)
(0.133747 0 0)
(0.133708 0 0)
(0.133686 0 0)
(0.133666 0 0)
(0.133655 0 0)
(0.133642 0 0)
(0.133635 0 0)
(0.133624 0 0)
(0.133616 0 0)
(0.133605 0 0)
(0.133597 0 0)
(0.133584 0 0)
(0.133575 0 0)
(0.133561 0 0)
(0.13355 0 0)
(0.133536 0 0)
(0.133524 0 0)
(0.133508 0 0)
(0.133495 0 0)
(0.133478 0 0)
(0.133463 0 0)
(0.133446 0 0)
(0.13343 0 0)
(0.133411 0 0)
(0.133394 0 0)
(0.133375 0 0)
(0.133357 0 0)
(0.133337 0 0)
(0.133318 0 0)
(0.133298 0 0)
(0.133278 0 0)
(0.133257 0 0)
(0.133236 0 0)
(0.133214 0 0)
(0.133193 0 0)
(0.133171 0 0)
(0.133149 0 0)
(0.133126 0 0)
(0.133104 0 0)
(0.133081 0 0)
(0.133058 0 0)
(0.133035 0 0)
(0.133012 0 0)
(0.132988 0 0)
(0.132965 0 0)
(0.132942 0 0)
(0.132918 0 0)
(0.132895 0 0)
(0.132871 0 0)
(0.132848 0 0)
(0.132824 0 0)
(0.132801 0 0)
(0.132777 0 0)
(0.132754 0 0)
(0.132731 0 0)
(0.132708 0 0)
(0.132685 0 0)
(0.132662 0 0)
(0.132639 0 0)
(0.132617 0 0)
(0.132594 0 0)
(0.132572 0 0)
(0.13255 0 0)
(0.132529 0 0)
(0.132507 0 0)
(0.132486 0 0)
(0.132465 0 0)
(0.132444 0 0)
(0.132424 0 0)
(0.132404 0 0)
(0.132384 0 0)
(0.132365 0 0)
(0.132345 0 0)
(0.132326 0 0)
(0.132308 0 0)
(0.13229 0 0)
(0.132272 0 0)
(0.132254 0 0)
(0.132237 0 0)
(0.13222 0 0)
(0.132204 0 0)
(0.132188 0 0)
(0.132172 0 0)
(0.132157 0 0)
(0.132142 0 0)
(0.132127 0 0)
(0.132113 0 0)
(0.132099 0 0)
(0.132085 0 0)
(0.132072 0 0)
(0.132059 0 0)
(0.132046 0 0)
(0.132034 0 0)
(0.132022 0 0)
(0.132011 0 0)
(0.132 0 0)
(0.131989 0 0)
(0.131978 0 0)
(0.131968 0 0)
(0.131958 0 0)
(0.131949 0 0)
(0.13194 0 0)
(0.131931 0 0)
(0.131922 0 0)
(0.131914 0 0)
(0.131906 0 0)
(0.131898 0 0)
(0.131891 0 0)
(0.131883 0 0)
(0.131877 0 0)
(0.13187 0 0)
(0.131864 0 0)
(0.131857 0 0)
(0.131852 0 0)
(0.131846 0 0)
(0.13184 0 0)
(0.131835 0 0)
(0.13183 0 0)
(0.131826 0 0)
(0.131821 0 0)
(0.131817 0 0)
(0.131812 0 0)
(0.131808 0 0)
(0.131805 0 0)
(0.131801 0 0)
(0.131798 0 0)
(0.131794 0 0)
(0.131791 0 0)
(0.131788 0 0)
(0.131785 0 0)
(0.131783 0 0)
(0.13178 0 0)
(0.131778 0 0)
(0.131775 0 0)
(0.131773 0 0)
(0.131771 0 0)
(0.131769 0 0)
(0.131767 0 0)
(0.131765 0 0)
(0.131764 0 0)
(0.131762 0 0)
(0.13176 0 0)
(0.131759 0 0)
(0.131758 0 0)
(0.131756 0 0)
(0.131755 0 0)
(0.131754 0 0)
(0.131753 0 0)
(0.131752 0 0)
(0.131751 0 0)
(0.13175 0 0)
(0.131749 0 0)
(0.131749 0 0)
(0.131748 0 0)
(0.131747 0 0)
(0.131747 0 0)
(0.131746 0 0)
(0.131745 0 0)
(0.131745 0 0)
(0.131744 0 0)
(0.131744 0 0)
(0.131744 0 0)
(0.131743 0 0)
(0.131743 0 0)
(0.131742 0 0)
(0.131742 0 0)
(0.131742 0 0)
(0.131741 0 0)
(0.131741 0 0)
(0.131741 0 0)
(0.131741 0 0)
(0.131741 0 0)
(0.13174 0 0)
(0.13174 0 0)
(0.13174 0 0)
(0.13174 0 0)
(0.13174 0 0)
(0.13174 0 0)
(0.131739 0 0)
(0.131739 0 0)
(0.131739 0 0)
(0.131739 0 0)
(0.131739 0 0)
(0.131739 0 0)
(0.131739 0 0)
(0.131739 0 0)
(0.131739 0 0)
(0.131739 0 0)
(0.131739 0 0)
(0.131739 0 0)
(0.131738 0 0)
(0.131738 0 0)
(0.131738 0 0)
(0.131738 0 0)
(0.131738 0 0)
(0.131738 0 0)
(0.131738 0 0)
(0.131738 0 0)
(0.131738 0 0)
(0.131738 0 0)
(0.131738 0 0)
(0.131738 0 0)
(0.131738 0 0)
(0.131738 0 0)
(0.131738 0 0)
(0.131738 0 0)
(0.131738 0 0)
(0.131738 0 0)
(0.131738 0 0)
(0.131738 0 0)
(0.131738 0 0)
(0.131738 0 0)
(0.131738 0 0)
(0.131738 0 0)
(0.131738 0 0)
(0.131738 0 0)
(0.131738 0 0)
(0.131738 0 0)
(0.131738 0 0)
(0.131738 0 0)
(0.131738 0 0)
(0.131738 0 0)
(0.131738 0 0)
(0.131738 0 0)
(0.131738 0 0)
(0.131738 0 0)
(0.131738 0 0)
(0.131738 0 0)
(0.131738 0 0)
(0.131738 0 0)
(0.131738 0 0)
(0.131738 0 0)
(0.131738 0 0)
(0.131738 0 0)
(0.131738 0 0)
(0.131738 0 0)
(0.131738 0 0)
(0.131738 0 0)
(0.131738 0 0)
(0.131738 0 0)
(0.131738 0 0)
(0.131738 0 0)
(0.131738 0 0)
(0.131738 0 0)
(0.131738 0 0)
(0.131738 0 0)
(0.131738 0 0)
(0.131738 0 0)
(0.131738 0 0)
(0.131738 0 0)
(0.131738 0 0)
(0.131738 0 0)
(0.131738 0 0)
(0.131738 0 0)
(0.131738 0 0)
(0.131738 0 0)
(0.131738 0 0)
(0.131738 0 0)
(0.131738 0 0)
(0.131738 0 0)
(0.131738 0 0)
(0.131738 0 0)
(0.131738 0 0)
(0.131738 0 0)
(0.131738 0 0)
(0.131738 0 0)
(0.131738 0 0)
(0.131738 0 0)
(0.131738 0 0)
(0.131738 0 0)
(0.131738 0 0)
(0.131738 0 0)
(0.131738 0 0)
(0.131738 0 0)
(0.131738 0 0)
(0.131738 0 0)
(0.131738 0 0)
(0.131738 0 0)
(0.131738 0 0)
(0.131738 0 0)
(0.131738 0 0)
(0.131738 0 0)
(0.131738 0 0)
(0.131738 0 0)
(0.131738 0 0)
(0.131738 0 0)
(0.131738 0 0)
(0.131738 0 0)
(0.131738 0 0)
(0.131738 0 0)
(0.131738 0 0)
(0.131738 0 0)
(0.131738 0 0)
(0.131738 0 0)
(0.131738 0 0)
(0.131738 0 0)
(0.131738 0 0)
(0.131738 0 0)
(0.131738 0 0)
(0.131738 0 0)
(0.131738 0 0)
(0.131738 0 0)
(0.131738 0 0)
(0.131738 0 0)
(0.131738 0 0)
(0.131738 0 0)
(0.131738 0 0)
(0.131738 0 0)
(0.131738 0 0)
(0.131738 0 0)
(0.131738 0 0)
(0.131738 0 0)
(0.131738 0 0)
(0.131738 0 0)
(0.131738 0 0)
(0.131738 0 0)
(0.131738 0 0)
(0.131738 0 0)
(0.131738 0 0)
(0.131738 0 0)
(0.131738 0 0)
(0.131738 0 0)
(0.131738 0 0)
(0.131738 0 0)
(0.131738 0 0)
(0.131738 0 0)
(0.131738 0 0)
(0.131738 0 0)
(0.131738 0 0)
(0.131738 0 0)
(0.131738 0 0)
(0.131738 0 0)
(0.131738 0 0)
(0.131738 0 0)
(0.131738 0 0)
(0.131738 0 0)
(0.131738 0 0)
(0.131738 0 0)
(0.131738 0 0)
(0.131738 0 0)
(0.131738 0 0)
(0.131738 0 0)
(0.131738 0 0)
(0.131738 0 0)
(0.131738 0 0)
(0.131738 0 0)
(0.131738 0 0)
(0.131738 0 0)
(0.131738 0 0)
(0.131738 0 0)
(0.131738 0 0)
(0.131738 0 0)
(0.131738 0 0)
(0.131738 0 0)
(0.131738 0 0)
(0.131738 0 0)
(0.131738 0 0)
(0.131738 0 0)
(0.131738 0 0)
(0.131738 0 0)
(0.131738 0 0)
(0.131738 0 0)
(0.131738 0 0)
(0.131738 0 0)
(0.131738 0 0)
(0.131738 0 0)
(0.131738 0 0)
(0.131738 0 0)
(0.131738 0 0)
(0.131738 0 0)
(0.131738 0 0)
(0.131738 0 0)
(0.131738 0 0)
(0.131738 0 0)
(0.131738 0 0)
(0.131738 0 0)
(0.131738 0 0)
(0.131738 0 0)
(0.131738 0 0)
(0.131738 0 0)
(0.131738 0 0)
(0.131738 0 0)
(0.131738 0 0)
(0.131738 0 0)
(0.131738 0 0)
(0.131738 0 0)
(0.131738 0 0)
(0.131738 0 0)
(0.131738 0 0)
(0.131738 0 0)
(0.131738 0 0)
(0.131738 0 0)
(0.131738 0 0)
(0.131738 0 0)
(0.131738 0 0)
(0.131738 0 0)
(0.131738 0 0)
(0.131738 0 0)
(0.131738 0 0)
(0.131738 0 0)
(0.131738 0 0)
(0.131738 0 0)
(0.131738 0 0)
(0.131738 0 0)
(0.131738 0 0)
(0.131738 0 0)
(0.131738 0 0)
(0.131738 0 0)
(0.131738 0 0)
(0.131738 0 0)
(0.131738 0 0)
(0.131738 0 0)
(0.131738 0 0)
(0.131738 0 0)
(0.131738 0 0)
(0.131738 0 0)
(0.131738 0 0)
(0.131738 0 0)
(0.131738 0 0)
(0.131738 0 0)
(0.131738 0 0)
(0.131738 0 0)
(0.131738 0 0)
(0.131738 0 0)
(0.131738 0 0)
(0.131738 0 0)
(0.131738 0 0)
(0.131738 0 0)
(0.131738 0 0)
(0.131738 0 0)
(0.131738 0 0)
(0.131738 0 0)
(0.131738 0 0)
(0.131738 0 0)
(0.131738 0 0)
(0.131738 0 0)
(0.131738 0 0)
(0.131738 0 0)
(0.131738 0 0)
(0.131738 0 0)
(0.131738 0 0)
(0.131738 0 0)
(0.131738 0 0)
(0.131738 0 0)
(0.131738 0 0)
(0.131738 0 0)
(0.131738 0 0)
(0.131738 0 0)
(0.131738 0 0)
(0.131738 0 0)
(0.131738 0 0)
(0.131738 0 0)
(0.131738 0 0)
(0.131738 0 0)
(0.131738 0 0)
(0.131738 0 0)
(0.131738 0 0)
(0.131738 0 0)
(0.131738 0 0)
(0.131738 0 0)
(0.131738 0 0)
(0.131738 0 0)
(0.131738 0 0)
(0.131738 0 0)
(0.131738 0 0)
(0.131738 0 0)
(0.131738 0 0)
(0.131738 0 0)
(0.131738 0 0)
(0.131738 0 0)
(0.131738 0 0)
(0.131738 0 0)
(0.131738 0 0)
(0.131738 0 0)
(0.131738 0 0)
(0.131738 0 0)
(0.131738 0 0)
(0.131738 0 0)
(0.131738 0 0)
(0.131738 0 0)
(0.131738 0 0)
(0.131738 0 0)
(0.131738 0 0)
(0.131738 0 0)
(0.131738 0 0)
(0.131738 0 0)
(0.131738 0 0)
(0.131738 0 0)
(0.131738 0 0)
(0.131738 0 0)
(0.131738 0 0)
(0.131738 0 0)
(0.131738 0 0)
(0.131738 0 0)
(0.131738 0 0)
(0.131738 0 0)
(0.131738 0 0)
(0.131738 0 0)
(0.131738 0 0)
(0.131738 0 0)
(0.131738 0 0)
(0.131738 0 0)
(0.131738 0 0)
(0.131738 0 0)
(0.131738 0 0)
(0.131738 0 0)
(0.131738 0 0)
(0.131738 0 0)
(0.131738 0 0)
(0.131738 0 0)
(0.131738 0 0)
(0.131738 0 0)
(0.131738 0 0)
(0.131738 0 0)
(0.131738 0 0)
(0.131738 0 0)
(0.131738 0 0)
(0.131738 0 0)
(0.131738 0 0)
(0.131738 0 0)
(0.131738 0 0)
(0.131738 0 0)
(0.131738 0 0)
(0.131738 0 0)
(0.131738 0 0)
(0.131738 0 0)
(0.131738 0 0)
(0.131738 0 0)
(0.131738 0 0)
(0.131738 0 0)
(0.131738 0 0)
(0.131738 0 0)
(0.131738 0 0)
(0.131738 0 0)
(0.131738 0 0)
(0.131738 0 0)
(0.131738 0 0)
(0.131738 0 0)
(0.131738 0 0)
(0.131738 0 0)
(0.131738 0 0)
(0.131738 0 0)
(0.131738 0 0)
(0.131738 0 0)
(0.131738 0 0)
(0.131738 0 0)
(0.131738 0 0)
(0.131738 0 0)
(0.131738 0 0)
(0.131738 0 0)
(0.131738 0 0)
(0.131738 0 0)
(0.131738 0 0)
(0.131738 0 0)
(0.131738 0 0)
(0.131738 0 0)
(0.131738 0 0)
(0.131738 0 0)
(0.131738 0 0)
(0.131738 0 0)
(0.131738 0 0)
(0.131738 0 0)
(0.131738 0 0)
(0.131738 0 0)
(0.131738 0 0)
(0.131738 0 0)
(0.131738 0 0)
(0.131738 0 0)
(0.131738 0 0)
(0.131738 0 0)
(0.131738 0 0)
(0.131738 0 0)
(0.131738 0 0)
(0.131738 0 0)
(0.131738 0 0)
(0.131738 0 0)
(0.131738 0 0)
(0.131738 0 0)
(0.131738 0 0)
(0.131738 0 0)
(0.131738 0 0)
(0.131738 0 0)
(0.131738 0 0)
(0.131738 0 0)
(0.131738 0 0)
(0.131738 0 0)
(0.131738 0 0)
(0.131738 0 0)
(0.131738 0 0)
(0.131738 0 0)
(0.131738 0 0)
(0.131738 0 0)
(0.131738 0 0)
(0.131738 0 0)
(0.131738 0 0)
(0.131738 0 0)
(0.131738 0 0)
(0.131738 0 0)
(0.131738 0 0)
(0.131738 0 0)
(0.131738 0 0)
(0.131738 0 0)
(0.131738 0 0)
(0.131738 0 0)
(0.131738 0 0)
(0.131738 0 0)
(0.131738 0 0)
(0.131738 0 0)
(0.131738 0 0)
(0.131738 0 0)
(0.131738 0 0)
(0.131738 0 0)
(0.131738 0 0)
(0.131738 0 0)
(0.131738 0 0)
(0.131738 0 0)
(0.131738 0 0)
(0.131738 0 0)
(0.131738 0 0)
(0.131738 0 0)
(0.131738 0 0)
(0.131738 0 0)
(0.131738 0 0)
(0.131738 0 0)
(0.131738 0 0)
(0.131738 0 0)
(0.131738 0 0)
(0.131738 0 0)
(0.131738 0 0)
(0.131738 0 0)
(0.131738 0 0)
(0.131738 0 0)
(0.131738 0 0)
(0.131738 0 0)
(0.131738 0 0)
(0.131738 0 0)
(0.131738 0 0)
(0.131738 0 0)
(0.131738 0 0)
(0.131738 0 0)
(0.131738 0 0)
(0.131738 0 0)
(0.131738 0 0)
(0.131738 0 0)
(0.131738 0 0)
(0.131738 0 0)
(0.131738 0 0)
(0.131738 0 0)
(0.131738 0 0)
(0.131738 0 0)
(0.131738 0 0)
(0.131738 0 0)
(0.131738 0 0)
(0.131738 0 0)
(0.131738 0 0)
(0.131738 0 0)
(0.131738 0 0)
(0.131738 0 0)
(0.131738 0 0)
(0.131738 0 0)
(0.131738 0 0)
(0.131738 0 0)
(0.131738 0 0)
(0.131738 0 0)
(0.131738 0 0)
(0.131738 0 0)
(0.131738 0 0)
(0.131738 0 0)
(0.131738 0 0)
(0.131738 0 0)
(0.131738 0 0)
(0.131738 0 0)
(0.131738 0 0)
(0.131738 0 0)
(0.131738 0 0)
(0.131738 0 0)
(0.131738 0 0)
(0.131738 0 0)
(0.131738 0 0)
(0.131738 0 0)
(0.131738 0 0)
(0.131738 0 0)
(0.131738 0 0)
(0.131738 0 0)
(0.131738 0 0)
(0.131738 0 0)
(0.131738 0 0)
(0.131738 0 0)
(0.131738 0 0)
(0.131738 0 0)
(0.131738 0 0)
(0.131738 0 0)
(0.131738 0 0)
(0.131738 0 0)
(0.131738 0 0)
(0.131738 0 0)
(0.131738 0 0)
(0.131738 0 0)
(0.131738 0 0)
(0.131738 0 0)
(0.131738 0 0)
(0.131738 0 0)
(0.131738 0 0)
(0.131738 0 0)
(0.131738 0 0)
(0.131738 0 0)
(0.131738 0 0)
(0.131738 0 0)
(0.131738 0 0)
(0.131738 0 0)
(0.131737 0 0)
(0.131739 0 0)
(0.131737 0 0)
(0.131739 0 0)
(0.131737 0 0)
(0.131739 0 0)
(0.131737 0 0)
(0.131739 0 0)
(0.131737 0 0)
(0.131739 0 0)
(0.131737 0 0)
(0.131739 0 0)
(0.131737 0 0)
(0.131739 0 0)
(0.131737 0 0)
(0.131739 0 0)
(0.131736 0 0)
(0.13174 0 0)
(0.131736 0 0)
(0.13174 0 0)
(0.131736 0 0)
(0.13174 0 0)
(0.131736 0 0)
(0.13174 0 0)
(0.131735 0 0)
(0.131741 0 0)
(0.131735 0 0)
(0.131741 0 0)
(0.131735 0 0)
(0.131741 0 0)
(0.131734 0 0)
(0.131742 0 0)
(0.131734 0 0)
(0.131742 0 0)
(0.131733 0 0)
(0.131742 0 0)
(0.131733 0 0)
(0.131743 0 0)
(0.131732 0 0)
(0.131743 0 0)
(0.131731 0 0)
(0.131744 0 0)
(0.131731 0 0)
(0.131745 0 0)
(0.13173 0 0)
(0.131745 0 0)
(0.131729 0 0)
(0.131746 0 0)
(0.131728 0 0)
(0.131747 0 0)
(0.131727 0 0)
(0.131747 0 0)
(0.131726 0 0)
(0.131748 0 0)
(0.131725 0 0)
(0.131749 0 0)
(0.131723 0 0)
(0.13175 0 0)
(0.131722 0 0)
(0.131751 0 0)
(0.131721 0 0)
(0.131752 0 0)
(0.131719 0 0)
(0.131753 0 0)
(0.131717 0 0)
(0.131754 0 0)
(0.131716 0 0)
(0.131755 0 0)
(0.131714 0 0)
(0.131756 0 0)
(0.131712 0 0)
(0.131757 0 0)
(0.13171 0 0)
(0.131758 0 0)
(0.131708 0 0)
(0.131759 0 0)
(0.131705 0 0)
(0.13176 0 0)
(0.131703 0 0)
)
;

boundaryField
{
    topWall
    {
        type            empty;
    }
    bottomWall
    {
        type            empty;
    }
    leftAndRight_half1
    {
        type            cyclic;
    }
    leftAndRight_half0
    {
        type            cyclic;
    }
    frontAndBack
    {
        type            empty;
    }
}


// ************************************************************************* //
