/*--------------------------------*- C++ -*----------------------------------*\
  =========                 |
  \\      /  F ield         | OpenFOAM: The Open Source CFD Toolbox
   \\    /   O peration     | Website:  https://openfoam.org
    \\  /    A nd           | Version:  9
     \\/     M anipulation  |
\*---------------------------------------------------------------------------*/
FoamFile
{
    format      ascii;
    class       volScalarField;
    location    "0.3";
    object      f_0;
}
// * * * * * * * * * * * * * * * * * * * * * * * * * * * * * * * * * * * * * //

dimensions      [1 -3 0 0 0 0 0];

internalField   nonuniform List<scalar> 
1000
(
666.667
666.667
666.667
666.667
666.667
666.667
666.667
666.667
666.667
666.667
666.667
666.667
666.667
666.667
666.667
666.667
666.667
666.667
666.667
666.667
666.667
666.667
666.667
666.667
666.667
666.667
666.667
666.667
666.667
666.667
666.667
666.667
666.667
666.667
666.667
666.667
666.667
666.667
666.667
666.667
666.667
666.667
666.667
666.667
666.667
666.667
666.667
666.667
666.667
666.667
666.667
666.667
666.667
666.667
666.667
666.667
666.667
666.667
666.667
666.667
666.667
666.667
666.667
666.667
666.667
666.667
666.667
666.667
666.667
666.667
666.667
666.667
666.667
666.667
666.667
666.667
666.667
666.667
666.667
666.667
666.667
666.667
666.667
666.667
666.667
666.667
666.667
666.667
666.667
666.667
666.667
666.667
666.667
666.667
666.667
666.667
666.667
666.667
666.667
666.667
666.667
666.667
666.667
666.667
666.667
666.667
666.667
666.667
666.667
666.667
666.667
666.667
666.667
666.667
666.667
666.667
666.667
666.667
666.667
666.667
666.667
666.667
666.667
666.667
666.667
666.667
666.667
666.667
666.667
666.667
666.667
666.667
666.667
666.667
666.667
666.667
666.667
666.667
666.667
666.667
666.667
666.667
666.667
666.667
666.667
666.667
666.667
666.667
666.667
666.667
666.667
666.667
666.667
666.667
666.667
666.667
666.667
666.667
666.667
666.667
666.667
666.667
666.667
666.667
666.667
666.667
666.667
666.667
666.667
666.667
666.667
666.667
666.667
666.667
666.667
666.667
666.667
666.667
666.667
666.667
666.667
666.667
666.667
666.667
666.667
666.667
666.667
666.667
666.667
666.667
666.667
666.667
666.667
666.667
666.667
666.667
666.667
666.667
666.667
666.667
666.667
666.667
666.667
666.667
666.667
666.667
666.667
666.667
666.667
666.667
666.667
666.667
666.667
666.667
666.667
666.667
666.667
666.667
666.667
666.667
666.667
666.667
666.667
666.667
666.667
666.667
666.667
666.667
666.667
666.667
666.667
666.667
666.667
666.667
666.667
666.667
666.667
666.666
666.666
666.666
666.666
666.666
666.666
666.666
666.666
666.666
666.666
666.666
666.666
666.666
666.666
666.666
666.666
666.666
666.666
666.666
666.666
666.666
666.666
666.666
666.666
666.666
666.666
666.666
666.666
666.666
666.666
666.666
666.666
666.666
666.665
666.665
666.665
666.665
666.665
666.665
666.665
666.665
666.665
666.665
666.665
666.665
666.664
666.664
666.664
666.664
666.664
666.664
666.664
666.664
666.663
666.663
666.663
666.663
666.663
666.663
666.662
666.662
666.662
666.662
666.661
666.661
666.661
666.661
666.66
666.66
666.66
666.66
666.659
666.659
666.659
666.658
666.658
666.658
666.657
666.657
666.657
666.656
666.656
666.655
666.655
666.655
666.654
666.654
666.653
666.653
666.652
666.652
666.651
666.65
666.65
666.649
666.649
666.648
666.647
666.647
666.646
666.645
666.645
666.644
666.643
666.643
666.642
666.641
666.64
666.64
666.639
666.638
666.637
666.636
666.635
666.634
666.633
666.633
666.632
666.631
666.63
666.629
666.628
666.627
666.626
666.625
666.624
666.622
666.621
666.62
666.619
666.618
666.617
666.616
666.615
666.613
666.612
666.611
666.61
666.608
666.607
666.606
666.605
666.603
666.602
666.601
666.6
666.598
666.597
666.596
666.594
666.593
666.592
666.59
666.589
666.587
666.586
666.585
666.583
666.582
666.581
666.579
666.578
666.576
666.575
666.574
666.572
666.571
666.569
666.568
666.566
666.565
666.564
666.562
666.561
666.559
666.558
666.557
666.555
666.554
666.552
666.551
666.55
666.548
666.547
666.545
666.544
666.543
666.541
666.54
666.538
666.537
666.536
666.534
666.533
666.532
666.53
666.529
666.528
666.526
666.525
666.524
666.523
666.521
666.52
666.519
666.518
666.516
666.515
666.514
666.513
666.511
666.51
666.509
666.508
666.507
666.506
666.504
666.503
666.502
666.501
666.5
666.499
666.498
666.497
666.496
666.494
666.493
666.492
666.491
666.49
666.489
666.488
666.487
666.486
666.485
666.484
666.483
666.482
666.482
666.481
666.48
666.479
666.478
666.477
666.476
666.475
666.474
666.474
666.473
666.472
666.471
666.47
666.47
666.469
666.468
666.467
666.466
666.466
666.465
666.464
666.464
666.463
666.462
666.461
666.461
666.46
666.459
666.459
666.458
666.458
666.457
666.456
666.456
666.455
666.455
666.454
666.453
666.453
666.452
666.452
666.451
666.451
666.45
666.45
666.449
666.449
666.448
666.448
666.447
666.447
666.446
666.446
666.445
666.445
666.445
666.444
666.444
666.444
666.443
666.443
666.442
666.442
666.442
666.441
666.441
666.441
666.441
666.44
666.44
666.44
666.44
666.439
666.439
666.439
666.439
666.439
666.438
666.438
666.438
666.438
666.438
666.438
666.438
666.438
666.438
666.438
666.438
666.438
666.438
666.438
666.438
666.438
666.438
666.438
666.439
666.439
666.439
666.439
666.44
666.44
666.44
666.441
666.441
666.442
666.442
666.443
666.443
666.444
666.445
666.446
666.447
666.447
666.448
666.45
666.451
666.452
666.453
666.455
666.456
666.458
666.459
666.461
666.463
666.465
666.467
666.47
666.472
666.475
666.478
666.481
666.484
666.487
666.491
666.495
666.499
666.503
666.508
666.513
666.518
666.523
666.529
666.535
666.542
666.549
666.557
666.564
666.573
666.582
666.591
666.601
666.611
666.623
666.634
666.647
666.66
666.673
666.688
666.703
666.719
666.736
666.753
666.772
666.791
666.811
666.832
666.854
666.877
666.9
666.925
666.95
666.976
667.003
667.03
667.058
667.087
667.116
667.145
667.175
667.204
667.234
667.263
667.293
667.321
667.35
667.377
667.403
667.428
667.452
667.474
667.495
667.514
667.531
667.545
667.558
667.568
667.575
667.581
667.583
667.583
667.581
667.576
667.569
667.56
667.548
667.535
667.519
667.502
667.483
667.463
667.441
667.418
667.395
667.371
667.346
667.32
667.295
667.269
667.244
667.218
667.193
667.168
667.144
667.12
667.097
667.074
667.052
667.031
667.011
666.991
666.972
666.954
666.937
666.921
666.905
666.89
666.876
666.863
666.85
666.838
666.827
666.816
666.806
666.797
666.788
666.78
666.772
666.765
666.758
666.751
666.745
666.74
666.735
666.73
666.725
666.721
666.717
666.713
666.71
666.707
666.704
666.701
666.698
666.696
666.694
666.692
666.69
666.688
666.687
666.685
666.684
666.682
666.681
666.68
666.679
666.678
666.677
666.676
666.676
666.675
666.674
666.674
666.673
666.673
666.672
666.672
666.671
666.671
666.671
666.67
666.67
666.67
666.67
666.669
666.669
666.669
666.669
666.669
666.668
666.668
666.668
666.668
666.668
666.668
666.668
666.668
666.668
666.667
666.667
666.667
666.667
666.667
666.667
666.667
666.667
666.667
666.667
666.667
666.667
666.667
666.667
666.667
666.667
666.667
666.667
666.667
666.667
666.667
666.667
666.667
666.667
666.667
666.667
666.667
666.667
666.667
666.667
666.667
666.667
666.667
666.667
666.667
666.667
666.667
666.667
666.667
666.667
666.667
666.667
666.667
666.667
666.667
666.667
666.667
666.667
666.667
666.667
666.667
666.667
666.667
666.667
666.667
666.667
666.667
666.667
666.667
666.667
666.667
666.667
666.667
666.667
666.667
666.667
666.667
666.667
666.667
666.667
666.667
666.667
666.667
666.667
666.667
666.667
666.667
666.667
666.667
666.667
666.667
666.667
666.667
666.667
666.667
666.667
666.667
666.667
666.667
666.667
666.667
666.667
666.667
666.667
666.667
666.667
666.667
666.667
666.667
666.667
666.667
666.667
666.667
666.667
666.667
666.667
666.667
666.667
666.667
666.667
666.667
666.667
666.667
666.667
666.667
666.667
666.667
666.667
666.667
666.667
666.667
666.667
666.667
666.667
666.667
666.667
666.667
666.667
666.667
666.667
666.667
666.667
666.667
666.667
666.667
666.667
666.667
666.667
666.667
666.667
666.667
666.667
666.667
666.667
666.667
666.667
666.667
666.667
666.667
666.667
666.667
666.667
666.667
666.667
666.667
666.667
666.667
666.667
666.667
666.667
666.667
666.667
666.667
666.667
666.667
666.667
666.667
666.667
666.667
666.667
666.667
666.667
666.667
666.667
666.667
666.667
666.667
666.667
666.667
666.667
666.667
666.667
666.667
666.667
666.667
666.667
666.667
666.667
666.667
666.667
666.667
666.667
666.667
666.667
666.667
666.667
666.667
666.667
666.667
666.667
666.667
666.667
666.667
666.667
666.667
666.667
666.667
666.667
666.667
666.667
666.667
666.667
666.667
666.667
666.667
666.667
666.667
)
;

boundaryField
{
    topWall
    {
        type            empty;
    }
    bottomWall
    {
        type            empty;
    }
    leftAndRight_half1
    {
        type            cyclic;
    }
    leftAndRight_half0
    {
        type            cyclic;
    }
    frontAndBack
    {
        type            empty;
    }
}


// ************************************************************************* //
