/*--------------------------------*- C++ -*----------------------------------*\
  =========                 |
  \\      /  F ield         | OpenFOAM: The Open Source CFD Toolbox
   \\    /   O peration     | Website:  https://openfoam.org
    \\  /    A nd           | Version:  9
     \\/     M anipulation  |
\*---------------------------------------------------------------------------*/
FoamFile
{
    format      ascii;
    class       volScalarField;
    location    "0.3";
    object      f_1;
}
// * * * * * * * * * * * * * * * * * * * * * * * * * * * * * * * * * * * * * //

dimensions      [1 -3 0 0 0 0 0];

internalField   nonuniform List<scalar> 
1000
(
168.881
168.881
168.881
168.881
168.881
168.881
168.881
168.881
168.881
168.881
168.881
168.881
168.881
168.881
168.881
168.881
168.881
168.881
168.881
168.881
168.881
168.881
168.881
168.881
168.881
168.881
168.881
168.881
168.881
168.881
168.881
168.881
168.881
168.881
168.881
168.881
168.881
168.881
168.881
168.881
168.881
168.881
168.881
168.881
168.881
168.881
168.881
168.881
168.881
168.881
168.881
168.881
168.881
168.881
168.881
168.881
168.881
168.881
168.881
168.881
168.881
168.881
168.881
168.881
168.881
168.881
168.881
168.881
168.881
168.881
168.881
168.881
168.881
168.881
168.881
168.881
168.881
168.881
168.881
168.881
168.881
168.881
168.881
168.881
168.881
168.881
168.881
168.881
168.881
168.881
168.881
168.881
168.881
168.881
168.881
168.881
168.881
168.881
168.881
168.881
168.881
168.881
168.881
168.881
168.881
168.881
168.881
168.881
168.881
168.881
168.881
168.881
168.881
168.881
168.881
168.881
168.881
168.881
168.881
168.881
168.881
168.881
168.881
168.881
168.881
168.881
168.881
168.881
168.881
168.881
168.881
168.881
168.881
168.881
168.881
168.881
168.881
168.881
168.881
168.881
168.881
168.881
168.881
168.881
168.881
168.881
168.881
168.881
168.881
168.881
168.881
168.881
168.881
168.881
168.881
168.881
168.881
168.881
168.881
168.881
168.881
168.881
168.881
168.881
168.881
168.881
168.881
168.881
168.881
168.881
168.881
168.881
168.881
168.881
168.881
168.881
168.881
168.881
168.881
168.881
168.881
168.881
168.881
168.881
168.881
168.881
168.881
168.881
168.881
168.881
168.881
168.881
168.881
168.881
168.881
168.881
168.881
168.881
168.881
168.881
168.881
168.881
168.881
168.881
168.881
168.881
168.881
168.881
168.881
168.881
168.881
168.881
168.881
168.881
168.881
168.881
168.881
168.881
168.882
168.882
168.882
168.882
168.882
168.882
168.882
168.882
168.882
168.882
168.882
168.882
168.882
168.882
168.882
168.882
168.882
168.882
168.882
168.882
168.882
168.883
168.883
168.883
168.883
168.883
168.883
168.883
168.883
168.884
168.884
168.884
168.884
168.884
168.884
168.885
168.885
168.885
168.885
168.886
168.886
168.886
168.886
168.887
168.887
168.888
168.888
168.888
168.889
168.889
168.89
168.89
168.891
168.891
168.892
168.893
168.893
168.894
168.895
168.896
168.897
168.897
168.898
168.899
168.9
168.901
168.903
168.904
168.905
168.906
168.908
168.909
168.911
168.912
168.914
168.916
168.918
168.92
168.922
168.924
168.926
168.928
168.931
168.933
168.936
168.939
168.942
168.945
168.948
168.951
168.955
168.958
168.962
168.966
168.97
168.974
168.978
168.983
168.988
168.993
168.998
169.003
169.009
169.015
169.021
169.027
169.033
169.04
169.047
169.054
169.061
169.069
169.077
169.086
169.094
169.103
169.112
169.122
169.131
169.142
169.152
169.163
169.174
169.186
169.198
169.21
169.223
169.236
169.249
169.263
169.277
169.292
169.307
169.323
169.339
169.355
169.372
169.39
169.408
169.426
169.445
169.464
169.484
169.505
169.526
169.547
169.569
169.592
169.615
169.639
169.663
169.688
169.713
169.739
169.766
169.793
169.821
169.85
169.879
169.909
169.939
169.97
170.002
170.034
170.067
170.101
170.135
170.17
170.206
170.242
170.279
170.317
170.356
170.395
170.435
170.475
170.517
170.559
170.601
170.645
170.689
170.734
170.78
170.826
170.873
170.921
170.97
171.019
171.069
171.12
171.172
171.224
171.277
171.331
171.385
171.441
171.497
171.553
171.611
171.669
171.728
171.788
171.849
171.91
171.972
172.034
172.098
172.162
172.227
172.293
172.359
172.426
172.494
172.563
172.632
172.702
172.773
172.844
172.916
172.989
173.063
173.137
173.212
173.288
173.364
173.441
173.519
173.597
173.676
173.756
173.836
173.917
173.999
174.082
174.165
174.248
174.333
174.418
174.504
174.59
174.677
174.764
174.852
174.941
175.031
175.121
175.211
175.303
175.394
175.487
175.58
175.674
175.768
175.862
175.958
176.054
176.15
176.247
176.345
176.443
176.542
176.641
176.74
176.841
176.942
177.043
177.145
177.247
177.35
177.453
177.557
177.662
177.767
177.872
177.978
178.084
178.191
178.298
178.406
178.514
178.623
178.732
178.842
178.952
179.062
179.173
179.284
179.396
179.508
179.621
179.734
179.847
179.961
180.075
180.19
180.305
180.421
180.536
180.653
180.769
180.886
181.004
181.121
181.239
181.358
181.477
181.596
181.715
181.835
181.955
182.076
182.197
182.318
182.439
182.561
182.683
182.805
182.928
183.051
183.174
183.298
183.422
183.546
183.67
183.795
183.92
184.045
184.171
184.296
184.422
184.548
184.675
184.801
184.928
185.055
185.183
185.31
185.438
185.565
185.693
185.821
185.95
186.078
186.207
186.335
186.464
186.593
186.722
186.851
186.98
187.11
187.239
187.368
187.498
187.627
187.756
187.886
188.015
188.144
188.273
188.402
188.531
188.66
188.789
188.917
189.045
189.173
189.301
189.429
189.556
189.682
189.809
189.935
190.06
190.185
190.309
190.433
190.556
190.679
190.8
190.921
191.041
191.16
191.278
191.394
191.51
191.624
191.737
191.849
191.958
192.067
192.173
192.278
192.38
192.48
192.578
192.674
192.767
192.857
192.944
193.028
193.108
193.185
193.258
193.327
193.392
193.452
193.507
193.557
193.601
193.64
193.672
193.698
193.717
193.729
193.733
193.73
193.717
193.696
193.665
193.625
193.574
193.512
193.44
193.355
193.258
193.148
193.026
192.889
192.738
192.573
192.393
192.197
191.986
191.759
191.515
191.255
190.979
190.686
190.376
190.05
189.708
189.349
188.975
188.586
188.182
187.765
187.334
186.89
186.436
185.971
185.497
185.015
184.526
184.032
183.534
183.033
182.53
182.028
181.527
181.029
180.535
180.047
179.565
179.09
178.624
178.168
177.723
177.288
176.866
176.456
176.059
175.676
175.306
174.95
174.608
174.28
173.967
173.667
173.381
173.108
172.849
172.602
172.369
172.148
171.938
171.74
171.553
171.377
171.211
171.055
170.909
170.771
170.641
170.52
170.406
170.3
170.2
170.107
170.02
169.939
169.863
169.792
169.727
169.665
169.608
169.555
169.505
169.459
169.416
169.377
169.34
169.305
169.274
169.244
169.217
169.191
169.168
169.146
169.126
169.107
169.09
169.074
169.059
169.045
169.033
169.021
169.01
169
168.991
168.982
168.974
168.967
168.96
168.954
168.948
168.943
168.938
168.934
168.93
168.926
168.922
168.919
168.916
168.913
168.911
168.908
168.906
168.904
168.902
168.901
168.899
168.898
168.896
168.895
168.894
168.893
168.892
168.891
168.89
168.89
168.889
168.888
168.888
168.887
168.887
168.886
168.886
168.885
168.885
168.885
168.885
168.884
168.884
168.884
168.884
168.883
168.883
168.883
168.883
168.883
168.883
168.883
168.882
168.882
168.882
168.882
168.882
168.882
168.882
168.882
168.882
168.882
168.882
168.882
168.882
168.882
168.882
168.882
168.881
168.881
168.881
168.881
168.881
168.881
168.881
168.881
168.881
168.881
168.881
168.881
168.881
168.881
168.881
168.881
168.881
168.881
168.881
168.881
168.881
168.881
168.881
168.881
168.881
168.881
168.881
168.881
168.881
168.881
168.881
168.881
168.881
168.881
168.881
168.881
168.881
168.881
168.881
168.881
168.881
168.881
168.881
168.881
168.881
168.881
168.881
168.881
168.881
168.881
168.881
168.881
168.881
168.881
168.881
168.881
168.881
168.881
168.881
168.881
168.881
168.881
168.881
168.881
168.881
168.881
168.881
168.881
168.881
168.881
168.881
168.881
168.881
168.881
168.881
168.881
168.881
168.881
168.881
168.881
168.881
168.881
168.881
168.881
168.881
168.881
168.881
168.881
168.881
168.881
168.881
168.881
168.881
168.881
168.881
168.881
168.881
168.881
168.881
168.881
168.881
168.881
168.881
168.881
168.881
168.881
168.881
168.881
168.881
168.881
168.881
168.881
168.881
168.881
168.881
168.881
168.881
168.881
168.881
168.881
168.881
168.881
168.881
168.881
168.881
168.881
168.881
168.881
168.881
168.881
168.881
168.881
168.881
168.881
168.881
168.881
168.881
168.881
168.881
168.881
168.881
168.881
168.881
168.881
168.881
168.881
168.881
168.881
168.881
168.881
168.881
168.881
168.881
168.881
168.881
168.881
168.881
168.881
168.881
168.881
168.881
168.881
168.881
168.881
168.881
168.881
168.881
168.881
168.881
168.881
168.881
168.881
168.881
168.881
168.881
168.881
168.881
168.881
168.881
168.881
168.881
168.881
168.881
)
;

boundaryField
{
    topWall
    {
        type            empty;
    }
    bottomWall
    {
        type            empty;
    }
    leftAndRight_half1
    {
        type            cyclic;
    }
    leftAndRight_half0
    {
        type            cyclic;
    }
    frontAndBack
    {
        type            empty;
    }
}


// ************************************************************************* //
