/*--------------------------------*- C++ -*----------------------------------*\
  =========                 |
  \\      /  F ield         | OpenFOAM: The Open Source CFD Toolbox
   \\    /   O peration     | Website:  https://openfoam.org
    \\  /    A nd           | Version:  9
     \\/     M anipulation  |
\*---------------------------------------------------------------------------*/
FoamFile
{
    format      ascii;
    class       volScalarField;
    location    "0.3";
    object      f_2;
}
// * * * * * * * * * * * * * * * * * * * * * * * * * * * * * * * * * * * * * //

dimensions      [1 -3 0 0 0 0 0];

internalField   nonuniform List<scalar> 
1000
(
164.481
164.481
164.481
164.481
164.481
164.481
164.481
164.481
164.481
164.481
164.481
164.481
164.481
164.481
164.481
164.481
164.481
164.481
164.481
164.481
164.481
164.481
164.481
164.481
164.481
164.481
164.481
164.481
164.481
164.481
164.481
164.481
164.481
164.481
164.481
164.481
164.481
164.481
164.481
164.481
164.481
164.481
164.481
164.481
164.481
164.481
164.481
164.481
164.481
164.481
164.481
164.481
164.481
164.481
164.481
164.481
164.481
164.481
164.481
164.481
164.481
164.481
164.481
164.481
164.481
164.481
164.481
164.481
164.481
164.481
164.481
164.481
164.481
164.481
164.481
164.481
164.481
164.481
164.481
164.481
164.481
164.481
164.481
164.481
164.481
164.481
164.481
164.481
164.481
164.481
164.481
164.481
164.481
164.481
164.481
164.481
164.481
164.481
164.481
164.481
164.481
164.481
164.481
164.481
164.481
164.481
164.481
164.481
164.481
164.481
164.481
164.481
164.481
164.481
164.481
164.481
164.481
164.481
164.481
164.481
164.481
164.481
164.481
164.481
164.481
164.481
164.481
164.481
164.481
164.481
164.481
164.481
164.481
164.481
164.481
164.481
164.481
164.481
164.481
164.481
164.481
164.481
164.481
164.481
164.481
164.481
164.481
164.481
164.481
164.481
164.481
164.481
164.481
164.481
164.481
164.481
164.481
164.481
164.481
164.481
164.481
164.481
164.481
164.481
164.481
164.481
164.481
164.481
164.481
164.481
164.481
164.481
164.481
164.481
164.481
164.481
164.481
164.481
164.481
164.481
164.481
164.481
164.481
164.481
164.481
164.481
164.481
164.481
164.481
164.481
164.481
164.481
164.481
164.481
164.481
164.481
164.481
164.481
164.481
164.481
164.481
164.481
164.481
164.481
164.481
164.481
164.481
164.481
164.481
164.481
164.481
164.481
164.481
164.481
164.481
164.481
164.481
164.481
164.481
164.481
164.481
164.481
164.481
164.481
164.481
164.481
164.481
164.48
164.48
164.48
164.48
164.48
164.48
164.48
164.48
164.48
164.48
164.48
164.48
164.48
164.479
164.479
164.479
164.479
164.479
164.479
164.479
164.479
164.478
164.478
164.478
164.478
164.478
164.477
164.477
164.477
164.476
164.476
164.476
164.476
164.475
164.475
164.474
164.474
164.473
164.473
164.473
164.472
164.471
164.471
164.47
164.47
164.469
164.468
164.467
164.467
164.466
164.465
164.464
164.463
164.462
164.461
164.46
164.458
164.457
164.456
164.454
164.453
164.451
164.45
164.448
164.446
164.445
164.443
164.441
164.438
164.436
164.434
164.431
164.429
164.426
164.424
164.421
164.418
164.414
164.411
164.408
164.404
164.4
164.397
164.393
164.388
164.384
164.379
164.375
164.37
164.365
164.359
164.354
164.348
164.342
164.336
164.329
164.323
164.316
164.309
164.301
164.294
164.286
164.278
164.269
164.26
164.251
164.242
164.232
164.222
164.212
164.201
164.19
164.178
164.167
164.154
164.142
164.129
164.116
164.102
164.088
164.073
164.059
164.043
164.027
164.011
163.994
163.977
163.96
163.942
163.923
163.904
163.884
163.864
163.844
163.823
163.801
163.779
163.756
163.733
163.709
163.685
163.66
163.634
163.608
163.582
163.555
163.527
163.498
163.469
163.44
163.41
163.379
163.347
163.315
163.282
163.249
163.215
163.18
163.145
163.109
163.073
163.035
162.998
162.959
162.92
162.88
162.839
162.798
162.756
162.714
162.67
162.627
162.582
162.537
162.491
162.444
162.397
162.349
162.3
162.251
162.201
162.15
162.099
162.047
161.994
161.941
161.887
161.832
161.777
161.721
161.664
161.607
161.549
161.49
161.431
161.371
161.311
161.25
161.188
161.125
161.062
160.998
160.934
160.869
160.803
160.737
160.67
160.603
160.535
160.466
160.397
160.327
160.257
160.186
160.115
160.043
159.97
159.897
159.823
159.749
159.674
159.599
159.523
159.446
159.369
159.292
159.214
159.135
159.056
158.977
158.897
158.817
158.736
158.654
158.572
158.49
158.407
158.324
158.24
158.156
158.072
157.987
157.901
157.816
157.729
157.643
157.556
157.468
157.38
157.292
157.204
157.115
157.025
156.936
156.846
156.755
156.664
156.573
156.482
156.39
156.298
156.206
156.113
156.02
155.926
155.833
155.739
155.645
155.55
155.455
155.36
155.265
155.169
155.073
154.977
154.881
154.784
154.687
154.59
154.493
154.395
154.297
154.199
154.101
154.002
153.904
153.805
153.706
153.607
153.507
153.407
153.308
153.208
153.107
153.007
152.907
152.806
152.705
152.604
152.503
152.402
152.301
152.199
152.098
151.996
151.894
151.792
151.69
151.588
151.486
151.383
151.281
151.178
151.076
150.973
150.87
150.767
150.665
150.562
150.459
150.356
150.253
150.15
150.047
149.944
149.84
149.737
149.634
149.531
149.428
149.325
149.222
149.119
149.016
148.913
148.81
148.708
148.605
148.502
148.4
148.298
148.195
148.093
147.991
147.889
147.788
147.686
147.585
147.484
147.383
147.282
147.182
147.082
146.982
146.883
146.784
146.685
146.586
146.488
146.391
146.294
146.197
146.101
146.005
145.91
145.816
145.722
145.629
145.537
145.445
145.355
145.265
145.176
145.088
145.001
144.915
144.831
144.747
144.665
144.585
144.506
144.428
144.352
144.278
144.206
144.136
144.068
144.002
143.938
143.877
143.819
143.764
143.711
143.662
143.616
143.574
143.535
143.501
143.47
143.444
143.423
143.407
143.396
143.39
143.391
143.397
143.41
143.43
143.457
143.492
143.534
143.584
143.644
143.712
143.789
143.877
143.974
144.082
144.201
144.331
144.473
144.627
144.793
144.972
145.164
145.368
145.586
145.817
146.062
146.32
146.591
146.876
147.173
147.484
147.807
148.142
148.489
148.846
149.214
149.592
149.978
150.373
150.774
151.181
151.594
152.01
152.428
152.849
153.27
153.69
154.108
154.524
154.935
155.342
155.742
156.136
156.522
156.9
157.269
157.628
157.976
158.314
158.641
158.957
159.261
159.553
159.834
160.103
160.36
160.605
160.839
161.062
161.274
161.475
161.665
161.846
162.016
162.177
162.329
162.472
162.607
162.733
162.852
162.964
163.068
163.167
163.258
163.344
163.425
163.5
163.57
163.635
163.696
163.753
163.806
163.856
163.902
163.944
163.984
164.021
164.055
164.087
164.117
164.144
164.169
164.193
164.215
164.235
164.254
164.271
164.287
164.302
164.316
164.329
164.34
164.351
164.361
164.371
164.379
164.387
164.395
164.401
164.408
164.413
164.419
164.424
164.428
164.432
164.436
164.44
164.443
164.446
164.449
164.451
164.454
164.456
164.458
164.46
164.462
164.463
164.465
164.466
164.467
164.468
164.469
164.47
164.471
164.472
164.473
164.473
164.474
164.475
164.475
164.476
164.476
164.476
164.477
164.477
164.478
164.478
164.478
164.478
164.479
164.479
164.479
164.479
164.479
164.479
164.48
164.48
164.48
164.48
164.48
164.48
164.48
164.48
164.48
164.48
164.481
164.481
164.481
164.481
164.481
164.481
164.481
164.481
164.481
164.481
164.481
164.481
164.481
164.481
164.481
164.481
164.481
164.481
164.481
164.481
164.481
164.481
164.481
164.481
164.481
164.481
164.481
164.481
164.481
164.481
164.481
164.481
164.481
164.481
164.481
164.481
164.481
164.481
164.481
164.481
164.481
164.481
164.481
164.481
164.481
164.481
164.481
164.481
164.481
164.481
164.481
164.481
164.481
164.481
164.481
164.481
164.481
164.481
164.481
164.481
164.481
164.481
164.481
164.481
164.481
164.481
164.481
164.481
164.481
164.481
164.481
164.481
164.481
164.481
164.481
164.481
164.481
164.481
164.481
164.481
164.481
164.481
164.481
164.481
164.481
164.481
164.481
164.481
164.481
164.481
164.481
164.481
164.481
164.481
164.481
164.481
164.481
164.481
164.481
164.481
164.481
164.481
164.481
164.481
164.481
164.481
164.481
164.481
164.481
164.481
164.481
164.481
164.481
164.481
164.481
164.481
164.481
164.481
164.481
164.481
164.481
164.481
164.481
164.481
164.481
164.481
164.481
164.481
164.481
164.481
164.481
164.481
164.481
164.481
164.481
164.481
164.481
164.481
164.481
164.481
164.481
164.481
164.481
164.481
164.481
164.481
164.481
164.481
164.481
164.481
164.481
164.481
164.481
164.481
164.481
164.481
164.481
164.481
164.481
164.481
164.481
164.481
164.481
164.481
164.481
164.481
164.481
164.481
164.481
164.481
164.481
164.481
164.481
164.481
164.481
164.481
164.481
164.481
164.481
164.481
164.481
164.481
164.481
164.481
164.481
164.481
164.481
164.481
164.481
164.481
164.481
164.481
164.481
164.481
164.481
)
;

boundaryField
{
    topWall
    {
        type            empty;
    }
    bottomWall
    {
        type            empty;
    }
    leftAndRight_half1
    {
        type            cyclic;
    }
    leftAndRight_half0
    {
        type            cyclic;
    }
    frontAndBack
    {
        type            empty;
    }
}


// ************************************************************************* //
