/*--------------------------------*- C++ -*----------------------------------*\
  =========                 |
  \\      /  F ield         | OpenFOAM: The Open Source CFD Toolbox
   \\    /   O peration     | Website:  https://openfoam.org
    \\  /    A nd           | Version:  9
     \\/     M anipulation  |
\*---------------------------------------------------------------------------*/
FoamFile
{
    format      ascii;
    class       volScalarField;
    location    "0.3";
    object      p;
}
// * * * * * * * * * * * * * * * * * * * * * * * * * * * * * * * * * * * * * //

dimensions      [1 -1 -2 0 0 0 0];

internalField   nonuniform List<scalar> 
1000
(
100097
100097
100097
100097
100097
100097
100097
100097
100097
100097
100097
100097
100097
100097
100097
100097
100097
100097
100097
100097
100097
100097
100097
100097
100097
100097
100097
100097
100097
100097
100097
100097
100097
100097
100097
100097
100097
100097
100097
100097
100097
100097
100097
100097
100097
100097
100097
100097
100097
100097
100097
100097
100097
100097
100097
100097
100097
100097
100097
100097
100097
100097
100097
100097
100097
100097
100097
100097
100097
100097
100097
100097
100097
100097
100097
100097
100097
100097
100097
100097
100097
100097
100097
100097
100097
100097
100097
100097
100097
100097
100097
100097
100097
100097
100097
100097
100097
100097
100097
100097
100097
100097
100097
100097
100097
100097
100097
100097
100097
100097
100097
100097
100097
100097
100097
100097
100097
100097
100097
100097
100097
100097
100097
100097
100097
100097
100097
100097
100097
100097
100097
100097
100097
100097
100097
100097
100097
100097
100097
100097
100097
100097
100097
100097
100097
100097
100097
100097
100097
100097
100097
100097
100097
100097
100097
100097
100097
100097
100097
100097
100097
100097
100097
100097
100097
100097
100097
100097
100097
100097
100097
100097
100097
100097
100097
100097
100097
100097
100097
100097
100097
100097
100097
100097
100097
100097
100097
100097
100097
100097
100097
100097
100097
100097
100097
100097
100097
100097
100097
100097
100097
100097
100097
100097
100097
100097
100097
100097
100097
100097
100097
100097
100097
100097
100097
100097
100096
100096
100096
100096
100096
100096
100096
100096
100096
100096
100096
100096
100096
100096
100096
100096
100096
100096
100096
100096
100096
100096
100096
100095
100095
100095
100095
100095
100095
100095
100095
100095
100094
100094
100094
100094
100094
100094
100093
100093
100093
100093
100093
100092
100092
100092
100091
100091
100091
100090
100090
100090
100089
100089
100089
100088
100088
100087
100087
100086
100085
100085
100084
100084
100083
100082
100082
100081
100080
100079
100078
100077
100076
100075
100074
100073
100072
100071
100070
100069
100067
100066
100065
100063
100062
100060
100059
100057
100055
100054
100052
100050
100048
100046
100044
100042
100039
100037
100035
100032
100030
100027
100025
100022
100019
100016
100013
100010
100007
100004
100001
99997.6
99994.2
99990.7
99987.1
99983.5
99979.7
99975.9
99972
99968.1
99964
99959.9
99955.7
99951.4
99947
99942.6
99938
99933.4
99928.8
99924
99919.2
99914.3
99909.3
99904.3
99899.2
99894.1
99888.8
99883.6
99878.2
99872.8
99867.4
99861.9
99856.4
99850.8
99845.2
99839.5
99833.8
99828.1
99822.4
99816.6
99810.8
99805
99799.2
99793.4
99787.5
99781.7
99775.9
99770.1
99764.3
99758.6
99752.8
99747.1
99741.5
99735.9
99730.3
99724.8
99719.3
99713.9
99708.6
99703.3
99698.2
99693.1
99688.1
99683.3
99678.5
99673.9
99669.3
99664.9
99660.7
99656.5
99652.6
99648.7
99645.1
99641.6
99638.3
99635.1
99632.2
99629.4
99626.9
99624.5
99622.4
99620.5
99618.8
99617.4
99616.2
99615.3
99614.6
99614.2
99614
99614.1
99614.6
99615.3
99616.3
99617.6
99619.2
99621.1
99623.4
99626
99629
99632.2
99635.9
99639.9
99644.2
99648.9
99654
99659.5
99665.4
99671.7
99678.4
99685.4
99692.9
99700.8
99709.2
99718
99727.2
99736.8
99746.9
99757.5
99768.5
99780
99791.9
99804.3
99817.2
99830.6
99844.5
99858.8
99873.7
99889.1
99905
99921.4
99938.3
99955.7
99973.7
99992.2
100011
100031
100051
100072
100093
100115
100137
100160
100183
100207
100232
100257
100283
100309
100336
100364
100392
100421
100450
100480
100511
100542
100574
100606
100639
100673
100707
100742
100778
100814
100851
100888
100926
100965
101004
101044
101085
101126
101168
101211
101254
101298
101343
101388
101434
101481
101528
101576
101625
101674
101724
101775
101826
101878
101931
101984
102038
102093
102148
102205
102261
102319
102377
102436
102496
102556
102617
102679
102741
102804
102868
102932
102997
103063
103130
103197
103265
103334
103403
103473
103544
103615
103688
103760
103834
103908
103983
104059
104135
104212
104290
104369
104448
104528
104608
104690
104772
104854
104938
105022
105107
105192
105278
105365
105453
105541
105630
105720
105810
105901
105993
106085
106178
106272
106366
106461
106557
106653
106750
106848
106946
107045
107145
107245
107346
107448
107550
107653
107756
107860
107965
108070
108176
108282
108389
108497
108605
108714
108823
108932
109043
109153
109264
109376
109488
109601
109714
109827
109940
110054
110169
110283
110398
110513
110628
110744
110859
110974
111090
111205
111321
111436
111551
111665
111779
111893
112006
112119
112230
112341
112451
112559
112666
112772
112876
112978
113078
113176
113271
113363
113452
113538
113619
113697
113770
113839
113902
113959
114010
114055
114092
114121
114142
114154
114157
114149
114132
114102
114062
114009
113943
113864
113771
113665
113544
113408
113258
113094
112915
112721
112513
112291
112056
111809
111549
111278
110997
110707
110408
110102
109790
109473
109152
108829
108505
108181
107857
107536
107218
106904
106595
106291
105995
105705
105423
105149
104884
104627
104380
104142
103913
103694
103484
103284
103093
102911
102738
102574
102418
102271
102131
101999
101875
101758
101647
101544
101446
101354
101268
101188
101112
101041
100975
100913
100856
100802
100751
100704
100660
100620
100582
100546
100513
100483
100454
100428
100403
100380
100359
100339
100321
100304
100288
100274
100260
100248
100236
100226
100216
100207
100198
100190
100183
100176
100170
100165
100159
100154
100150
100146
100142
100138
100135
100132
100129
100127
100124
100122
100120
100118
100117
100115
100114
100112
100111
100110
100109
100108
100107
100106
100105
100105
100104
100103
100103
100102
100102
100102
100101
100101
100101
100100
100100
100100
100099
100099
100099
100099
100099
100099
100098
100098
100098
100098
100098
100098
100098
100098
100098
100098
100097
100097
100097
100097
100097
100097
100097
100097
100097
100097
100097
100097
100097
100097
100097
100097
100097
100097
100097
100097
100097
100097
100097
100097
100097
100097
100097
100097
100097
100097
100097
100097
100097
100097
100097
100097
100097
100097
100097
100097
100097
100097
100097
100097
100097
100097
100097
100097
100097
100097
100097
100097
100097
100097
100097
100097
100097
100097
100097
100097
100097
100097
100097
100097
100097
100097
100097
100097
100097
100097
100097
100097
100097
100097
100097
100097
100097
100097
100097
100097
100097
100097
100097
100097
100097
100097
100097
100097
100097
100097
100097
100097
100097
100097
100097
100097
100097
100097
100097
100097
100097
100097
100097
100097
100097
100097
100097
100097
100097
100097
100097
100097
100097
100097
100097
100097
100097
100097
100097
100097
100097
100097
100097
100097
100097
100097
100097
100097
100097
100097
100097
100097
100097
100097
100097
100097
100097
100097
100097
100097
100097
100097
100097
100097
100097
100097
100097
100097
100097
100097
100097
100097
100097
100097
100097
100097
100097
100097
100097
100097
100097
100097
100097
100097
100097
100097
100097
100097
100097
100097
100097
100097
100097
100097
100097
100097
100097
100097
100097
100097
100097
100097
100097
100097
100097
100097
100097
100097
100097
100097
)
;

boundaryField
{
    topWall
    {
        type            empty;
    }
    bottomWall
    {
        type            empty;
    }
    leftAndRight_half1
    {
        type            cyclic;
    }
    leftAndRight_half0
    {
        type            cyclic;
    }
    frontAndBack
    {
        type            empty;
    }
}


// ************************************************************************* //
