/*--------------------------------*- C++ -*----------------------------------*\
  =========                 |
  \\      /  F ield         | OpenFOAM: The Open Source CFD Toolbox
   \\    /   O peration     | Website:  https://openfoam.org
    \\  /    A nd           | Version:  9
     \\/     M anipulation  |
\*---------------------------------------------------------------------------*/
FoamFile
{
    format      ascii;
    class       volVectorField;
    location    "0.3";
    object      U;
}
// * * * * * * * * * * * * * * * * * * * * * * * * * * * * * * * * * * * * * //

dimensions      [0 1 -1 0 0 0 0];

internalField   nonuniform List<vector> 
1000
(
(0.439989 0 0)
(0.439989 0 0)
(0.439989 0 0)
(0.439989 0 0)
(0.439989 0 0)
(0.439989 0 0)
(0.439989 0 0)
(0.439989 0 0)
(0.439989 0 0)
(0.439989 0 0)
(0.439989 0 0)
(0.439989 0 0)
(0.439989 0 0)
(0.439989 0 0)
(0.439989 0 0)
(0.439989 0 0)
(0.439989 0 0)
(0.439989 0 0)
(0.439989 0 0)
(0.439989 0 0)
(0.439989 0 0)
(0.439989 0 0)
(0.439989 0 0)
(0.439989 0 0)
(0.439989 0 0)
(0.439989 0 0)
(0.439989 0 0)
(0.439989 0 0)
(0.439989 0 0)
(0.439989 0 0)
(0.439989 0 0)
(0.439989 0 0)
(0.439989 0 0)
(0.439989 0 0)
(0.439989 0 0)
(0.439989 0 0)
(0.439989 0 0)
(0.439989 0 0)
(0.439989 0 0)
(0.439989 0 0)
(0.439989 0 0)
(0.439989 0 0)
(0.439989 0 0)
(0.439989 0 0)
(0.439989 0 0)
(0.439989 0 0)
(0.439989 0 0)
(0.439989 0 0)
(0.439989 0 0)
(0.439989 0 0)
(0.439989 0 0)
(0.439989 0 0)
(0.439989 0 0)
(0.439989 0 0)
(0.439989 0 0)
(0.439989 0 0)
(0.439989 0 0)
(0.439989 0 0)
(0.439989 0 0)
(0.439989 0 0)
(0.439989 0 0)
(0.439989 0 0)
(0.439989 0 0)
(0.439989 0 0)
(0.439989 0 0)
(0.439989 0 0)
(0.439989 0 0)
(0.439989 0 0)
(0.439989 0 0)
(0.439989 0 0)
(0.439989 0 0)
(0.439989 0 0)
(0.439989 0 0)
(0.439989 0 0)
(0.439989 0 0)
(0.439989 0 0)
(0.439989 0 0)
(0.439989 0 0)
(0.439989 0 0)
(0.439989 0 0)
(0.439989 0 0)
(0.439989 0 0)
(0.439989 0 0)
(0.439989 0 0)
(0.439989 0 0)
(0.439989 0 0)
(0.439989 0 0)
(0.439989 0 0)
(0.439989 0 0)
(0.439989 0 0)
(0.439989 0 0)
(0.439989 0 0)
(0.439989 0 0)
(0.439989 0 0)
(0.439989 0 0)
(0.439989 0 0)
(0.439989 0 0)
(0.439989 0 0)
(0.439989 0 0)
(0.439989 0 0)
(0.439989 0 0)
(0.439989 0 0)
(0.439989 0 0)
(0.439989 0 0)
(0.439989 0 0)
(0.439989 0 0)
(0.439989 0 0)
(0.439989 0 0)
(0.439989 0 0)
(0.439989 0 0)
(0.439989 0 0)
(0.439989 0 0)
(0.439989 0 0)
(0.439989 0 0)
(0.439989 0 0)
(0.439989 0 0)
(0.439989 0 0)
(0.439989 0 0)
(0.439989 0 0)
(0.439989 0 0)
(0.439989 0 0)
(0.439989 0 0)
(0.439989 0 0)
(0.439989 0 0)
(0.439989 0 0)
(0.439989 0 0)
(0.439989 0 0)
(0.439989 0 0)
(0.439989 0 0)
(0.439989 0 0)
(0.439989 0 0)
(0.439989 0 0)
(0.439989 0 0)
(0.439989 0 0)
(0.439989 0 0)
(0.439989 0 0)
(0.439989 0 0)
(0.439989 0 0)
(0.439989 0 0)
(0.439989 0 0)
(0.439989 0 0)
(0.439989 0 0)
(0.439989 0 0)
(0.439989 0 0)
(0.439989 0 0)
(0.439989 0 0)
(0.439989 0 0)
(0.439989 0 0)
(0.439989 0 0)
(0.439989 0 0)
(0.439989 0 0)
(0.439989 0 0)
(0.439989 0 0)
(0.439989 0 0)
(0.439989 0 0)
(0.439989 0 0)
(0.439989 0 0)
(0.439989 0 0)
(0.439989 0 0)
(0.439989 0 0)
(0.43999 0 0)
(0.43999 0 0)
(0.43999 0 0)
(0.43999 0 0)
(0.43999 0 0)
(0.43999 0 0)
(0.43999 0 0)
(0.43999 0 0)
(0.43999 0 0)
(0.43999 0 0)
(0.43999 0 0)
(0.43999 0 0)
(0.439991 0 0)
(0.439991 0 0)
(0.439991 0 0)
(0.439991 0 0)
(0.439991 0 0)
(0.439992 0 0)
(0.439992 0 0)
(0.439992 0 0)
(0.439992 0 0)
(0.439993 0 0)
(0.439993 0 0)
(0.439993 0 0)
(0.439994 0 0)
(0.439994 0 0)
(0.439994 0 0)
(0.439995 0 0)
(0.439995 0 0)
(0.439996 0 0)
(0.439997 0 0)
(0.439997 0 0)
(0.439998 0 0)
(0.439999 0 0)
(0.44 0 0)
(0.44 0 0)
(0.440001 0 0)
(0.440002 0 0)
(0.440003 0 0)
(0.440005 0 0)
(0.440006 0 0)
(0.440007 0 0)
(0.440009 0 0)
(0.44001 0 0)
(0.440012 0 0)
(0.440014 0 0)
(0.440016 0 0)
(0.440018 0 0)
(0.440021 0 0)
(0.440023 0 0)
(0.440026 0 0)
(0.440029 0 0)
(0.440032 0 0)
(0.440035 0 0)
(0.440039 0 0)
(0.440042 0 0)
(0.440047 0 0)
(0.440051 0 0)
(0.440056 0 0)
(0.440061 0 0)
(0.440066 0 0)
(0.440072 0 0)
(0.440078 0 0)
(0.440085 0 0)
(0.440092 0 0)
(0.4401 0 0)
(0.440108 0 0)
(0.440117 0 0)
(0.440126 0 0)
(0.440136 0 0)
(0.440147 0 0)
(0.440158 0 0)
(0.44017 0 0)
(0.440183 0 0)
(0.440197 0 0)
(0.440212 0 0)
(0.440228 0 0)
(0.440245 0 0)
(0.440263 0 0)
(0.440282 0 0)
(0.440302 0 0)
(0.440324 0 0)
(0.440347 0 0)
(0.440372 0 0)
(0.440398 0 0)
(0.440426 0 0)
(0.440455 0 0)
(0.440487 0 0)
(0.44052 0 0)
(0.440556 0 0)
(0.440593 0 0)
(0.440633 0 0)
(0.440676 0 0)
(0.440721 0 0)
(0.440769 0 0)
(0.440819 0 0)
(0.440873 0 0)
(0.44093 0 0)
(0.44099 0 0)
(0.441054 0 0)
(0.441121 0 0)
(0.441193 0 0)
(0.441269 0 0)
(0.441348 0 0)
(0.441433 0 0)
(0.441522 0 0)
(0.441617 0 0)
(0.441717 0 0)
(0.441822 0 0)
(0.441933 0 0)
(0.442051 0 0)
(0.442174 0 0)
(0.442305 0 0)
(0.442443 0 0)
(0.442588 0 0)
(0.44274 0 0)
(0.442901 0 0)
(0.443071 0 0)
(0.443249 0 0)
(0.443437 0 0)
(0.443635 0 0)
(0.443842 0 0)
(0.444061 0 0)
(0.44429 0 0)
(0.444531 0 0)
(0.444785 0 0)
(0.44505 0 0)
(0.445329 0 0)
(0.445622 0 0)
(0.445929 0 0)
(0.446251 0 0)
(0.446589 0 0)
(0.446943 0 0)
(0.447313 0 0)
(0.447702 0 0)
(0.448108 0 0)
(0.448533 0 0)
(0.448978 0 0)
(0.449443 0 0)
(0.44993 0 0)
(0.450438 0 0)
(0.45097 0 0)
(0.451525 0 0)
(0.452104 0 0)
(0.452709 0 0)
(0.453341 0 0)
(0.454 0 0)
(0.454686 0 0)
(0.455403 0 0)
(0.456149 0 0)
(0.456927 0 0)
(0.457737 0 0)
(0.45858 0 0)
(0.459458 0 0)
(0.460371 0 0)
(0.461321 0 0)
(0.462309 0 0)
(0.463336 0 0)
(0.464404 0 0)
(0.465512 0 0)
(0.466664 0 0)
(0.46786 0 0)
(0.469101 0 0)
(0.470388 0 0)
(0.471724 0 0)
(0.473108 0 0)
(0.474544 0 0)
(0.476031 0 0)
(0.477572 0 0)
(0.479167 0 0)
(0.480819 0 0)
(0.482529 0 0)
(0.484298 0 0)
(0.486127 0 0)
(0.488019 0 0)
(0.489974 0 0)
(0.491994 0 0)
(0.494081 0 0)
(0.496236 0 0)
(0.498461 0 0)
(0.500758 0 0)
(0.503127 0 0)
(0.50557 0 0)
(0.50809 0 0)
(0.510687 0 0)
(0.513363 0 0)
(0.51612 0 0)
(0.518959 0 0)
(0.521882 0 0)
(0.524891 0 0)
(0.527986 0 0)
(0.53117 0 0)
(0.534445 0 0)
(0.537811 0 0)
(0.54127 0 0)
(0.544824 0 0)
(0.548474 0 0)
(0.552223 0 0)
(0.55607 0 0)
(0.560019 0 0)
(0.56407 0 0)
(0.568225 0 0)
(0.572485 0 0)
(0.576851 0 0)
(0.581326 0 0)
(0.585911 0 0)
(0.590606 0 0)
(0.595414 0 0)
(0.600336 0 0)
(0.605372 0 0)
(0.610525 0 0)
(0.615795 0 0)
(0.621184 0 0)
(0.626693 0 0)
(0.632324 0 0)
(0.638076 0 0)
(0.643952 0 0)
(0.649953 0 0)
(0.656079 0 0)
(0.662332 0 0)
(0.668713 0 0)
(0.675222 0 0)
(0.681861 0 0)
(0.68863 0 0)
(0.695531 0 0)
(0.702564 0 0)
(0.70973 0 0)
(0.71703 0 0)
(0.724465 0 0)
(0.732035 0 0)
(0.73974 0 0)
(0.747583 0 0)
(0.755562 0 0)
(0.763679 0 0)
(0.771934 0 0)
(0.780328 0 0)
(0.788861 0 0)
(0.797534 0 0)
(0.806346 0 0)
(0.815299 0 0)
(0.824392 0 0)
(0.833626 0 0)
(0.843001 0 0)
(0.852518 0 0)
(0.862176 0 0)
(0.871975 0 0)
(0.881916 0 0)
(0.891998 0 0)
(0.902222 0 0)
(0.912588 0 0)
(0.923096 0 0)
(0.933745 0 0)
(0.944535 0 0)
(0.955466 0 0)
(0.966539 0 0)
(0.977752 0 0)
(0.989107 0 0)
(1.0006 0 0)
(1.01224 0 0)
(1.02401 0 0)
(1.03592 0 0)
(1.04798 0 0)
(1.06017 0 0)
(1.0725 0 0)
(1.08496 0 0)
(1.09757 0 0)
(1.11031 0 0)
(1.12318 0 0)
(1.1362 0 0)
(1.14934 0 0)
(1.16262 0 0)
(1.17604 0 0)
(1.18959 0 0)
(1.20327 0 0)
(1.21708 0 0)
(1.23102 0 0)
(1.2451 0 0)
(1.2593 0 0)
(1.27363 0 0)
(1.28809 0 0)
(1.30268 0 0)
(1.31739 0 0)
(1.33223 0 0)
(1.3472 0 0)
(1.36228 0 0)
(1.3775 0 0)
(1.39283 0 0)
(1.40828 0 0)
(1.42386 0 0)
(1.43955 0 0)
(1.45537 0 0)
(1.4713 0 0)
(1.48734 0 0)
(1.50351 0 0)
(1.51979 0 0)
(1.53618 0 0)
(1.55268 0 0)
(1.5693 0 0)
(1.58603 0 0)
(1.60287 0 0)
(1.61982 0 0)
(1.63687 0 0)
(1.65404 0 0)
(1.67131 0 0)
(1.68868 0 0)
(1.70616 0 0)
(1.72374 0 0)
(1.74143 0 0)
(1.75921 0 0)
(1.7771 0 0)
(1.79508 0 0)
(1.81317 0 0)
(1.83135 0 0)
(1.84963 0 0)
(1.868 0 0)
(1.88647 0 0)
(1.90503 0 0)
(1.92368 0 0)
(1.94242 0 0)
(1.96126 0 0)
(1.98018 0 0)
(1.99919 0 0)
(2.01829 0 0)
(2.03748 0 0)
(2.05675 0 0)
(2.07611 0 0)
(2.09555 0 0)
(2.11507 0 0)
(2.13467 0 0)
(2.15436 0 0)
(2.17412 0 0)
(2.19396 0 0)
(2.21388 0 0)
(2.23388 0 0)
(2.25395 0 0)
(2.2741 0 0)
(2.29433 0 0)
(2.31462 0 0)
(2.33499 0 0)
(2.35543 0 0)
(2.37594 0 0)
(2.39651 0 0)
(2.41716 0 0)
(2.43788 0 0)
(2.45866 0 0)
(2.4795 0 0)
(2.50042 0 0)
(2.52139 0 0)
(2.54243 0 0)
(2.56353 0 0)
(2.58469 0 0)
(2.60591 0 0)
(2.6272 0 0)
(2.64854 0 0)
(2.66993 0 0)
(2.69139 0 0)
(2.7129 0 0)
(2.73447 0 0)
(2.75608 0 0)
(2.77776 0 0)
(2.79948 0 0)
(2.82126 0 0)
(2.84309 0 0)
(2.86496 0 0)
(2.88689 0 0)
(2.90886 0 0)
(2.93088 0 0)
(2.95295 0 0)
(2.97506 0 0)
(2.99722 0 0)
(3.01942 0 0)
(3.04166 0 0)
(3.06394 0 0)
(3.08627 0 0)
(3.10863 0 0)
(3.13103 0 0)
(3.15347 0 0)
(3.17595 0 0)
(3.19846 0 0)
(3.22101 0 0)
(3.24359 0 0)
(3.2662 0 0)
(3.28885 0 0)
(3.31153 0 0)
(3.33423 0 0)
(3.35696 0 0)
(3.37973 0 0)
(3.40251 0 0)
(3.42532 0 0)
(3.44816 0 0)
(3.47102 0 0)
(3.4939 0 0)
(3.5168 0 0)
(3.53972 0 0)
(3.56265 0 0)
(3.5856 0 0)
(3.60857 0 0)
(3.63155 0 0)
(3.65454 0 0)
(3.67754 0 0)
(3.70054 0 0)
(3.72356 0 0)
(3.74658 0 0)
(3.7696 0 0)
(3.79262 0 0)
(3.81564 0 0)
(3.83866 0 0)
(3.86167 0 0)
(3.88467 0 0)
(3.90767 0 0)
(3.93065 0 0)
(3.95361 0 0)
(3.97656 0 0)
(3.99949 0 0)
(4.02239 0 0)
(4.04527 0 0)
(4.06811 0 0)
(4.09093 0 0)
(4.1137 0 0)
(4.13643 0 0)
(4.15912 0 0)
(4.18176 0 0)
(4.20435 0 0)
(4.22687 0 0)
(4.24934 0 0)
(4.27173 0 0)
(4.29405 0 0)
(4.31629 0 0)
(4.33844 0 0)
(4.3605 0 0)
(4.38246 0 0)
(4.40431 0 0)
(4.42605 0 0)
(4.44767 0 0)
(4.46915 0 0)
(4.49049 0 0)
(4.51168 0 0)
(4.53271 0 0)
(4.55356 0 0)
(4.57423 0 0)
(4.59471 0 0)
(4.61497 0 0)
(4.63502 0 0)
(4.65482 0 0)
(4.67437 0 0)
(4.69365 0 0)
(4.71264 0 0)
(4.73133 0 0)
(4.74969 0 0)
(4.7677 0 0)
(4.78534 0 0)
(4.80259 0 0)
(4.81943 0 0)
(4.83581 0 0)
(4.85173 0 0)
(4.86715 0 0)
(4.88203 0 0)
(4.89634 0 0)
(4.91006 0 0)
(4.92313 0 0)
(4.93553 0 0)
(4.94721 0 0)
(4.95813 0 0)
(4.96824 0 0)
(4.97749 0 0)
(4.98584 0 0)
(4.99323 0 0)
(4.99961 0 0)
(5.00491 0 0)
(5.00908 0 0)
(5.01205 0 0)
(5.01375 0 0)
(5.01413 0 0)
(5.01309 0 0)
(5.01058 0 0)
(5.00652 0 0)
(5.00082 0 0)
(4.99341 0 0)
(4.9842 0 0)
(4.97311 0 0)
(4.96005 0 0)
(4.94494 0 0)
(4.92769 0 0)
(4.90821 0 0)
(4.88643 0 0)
(4.86224 0 0)
(4.83558 0 0)
(4.80636 0 0)
(4.77451 0 0)
(4.73995 0 0)
(4.70262 0 0)
(4.66247 0 0)
(4.61944 0 0)
(4.57349 0 0)
(4.52459 0 0)
(4.47272 0 0)
(4.41788 0 0)
(4.36006 0 0)
(4.2993 0 0)
(4.23563 0 0)
(4.1691 0 0)
(4.09978 0 0)
(4.02776 0 0)
(3.95314 0 0)
(3.87606 0 0)
(3.79664 0 0)
(3.71506 0 0)
(3.63147 0 0)
(3.54608 0 0)
(3.45908 0 0)
(3.3707 0 0)
(3.28116 0 0)
(3.1907 0 0)
(3.09955 0 0)
(3.00798 0 0)
(2.91622 0 0)
(2.82453 0 0)
(2.73315 0 0)
(2.64233 0 0)
(2.55229 0 0)
(2.46327 0 0)
(2.37548 0 0)
(2.28912 0 0)
(2.20437 0 0)
(2.12141 0 0)
(2.04039 0 0)
(1.96145 0 0)
(1.88471 0 0)
(1.81026 0 0)
(1.7382 0 0)
(1.66859 0 0)
(1.60149 0 0)
(1.53692 0 0)
(1.47491 0 0)
(1.41547 0 0)
(1.35858 0 0)
(1.30422 0 0)
(1.25238 0 0)
(1.203 0 0)
(1.15605 0 0)
(1.11146 0 0)
(1.06917 0 0)
(1.02912 0 0)
(0.991233 0 0)
(0.955439 0 0)
(0.921659 0 0)
(0.889814 0 0)
(0.859824 0 0)
(0.83161 0 0)
(0.805092 0 0)
(0.780189 0 0)
(0.756825 0 0)
(0.734921 0 0)
(0.714402 0 0)
(0.695196 0 0)
(0.677231 0 0)
(0.660439 0 0)
(0.644753 0 0)
(0.63011 0 0)
(0.616448 0 0)
(0.603709 0 0)
(0.591838 0 0)
(0.58078 0 0)
(0.570485 0 0)
(0.560905 0 0)
(0.551996 0 0)
(0.543712 0 0)
(0.536015 0 0)
(0.528864 0 0)
(0.522225 0 0)
(0.516062 0 0)
(0.510344 0 0)
(0.50504 0 0)
(0.500122 0 0)
(0.495564 0 0)
(0.49134 0 0)
(0.487427 0 0)
(0.483804 0 0)
(0.480449 0 0)
(0.477344 0 0)
(0.474471 0 0)
(0.471814 0 0)
(0.469356 0 0)
(0.467083 0 0)
(0.464982 0 0)
(0.463041 0 0)
(0.461247 0 0)
(0.459589 0 0)
(0.458059 0 0)
(0.456645 0 0)
(0.45534 0 0)
(0.454135 0 0)
(0.453024 0 0)
(0.451998 0 0)
(0.451051 0 0)
(0.450178 0 0)
(0.449373 0 0)
(0.448631 0 0)
(0.447946 0 0)
(0.447315 0 0)
(0.446733 0 0)
(0.446197 0 0)
(0.445703 0 0)
(0.445248 0 0)
(0.444829 0 0)
(0.444442 0 0)
(0.444087 0 0)
(0.443759 0 0)
(0.443457 0 0)
(0.443179 0 0)
(0.442924 0 0)
(0.442688 0 0)
(0.442471 0 0)
(0.442272 0 0)
(0.442088 0 0)
(0.441919 0 0)
(0.441764 0 0)
(0.441621 0 0)
(0.441489 0 0)
(0.441368 0 0)
(0.441257 0 0)
(0.441154 0 0)
(0.44106 0 0)
(0.440974 0 0)
(0.440894 0 0)
(0.440821 0 0)
(0.440753 0 0)
(0.440691 0 0)
(0.440634 0 0)
(0.440582 0 0)
(0.440534 0 0)
(0.44049 0 0)
(0.440449 0 0)
(0.440411 0 0)
(0.440377 0 0)
(0.440345 0 0)
(0.440316 0 0)
(0.44029 0 0)
(0.440265 0 0)
(0.440243 0 0)
(0.440222 0 0)
(0.440203 0 0)
(0.440185 0 0)
(0.440169 0 0)
(0.440155 0 0)
(0.440141 0 0)
(0.440128 0 0)
(0.440117 0 0)
(0.440107 0 0)
(0.440097 0 0)
(0.440088 0 0)
(0.44008 0 0)
(0.440072 0 0)
(0.440065 0 0)
(0.440059 0 0)
(0.440053 0 0)
(0.440048 0 0)
(0.440043 0 0)
(0.440039 0 0)
(0.440035 0 0)
(0.440031 0 0)
(0.440027 0 0)
(0.440024 0 0)
(0.440021 0 0)
(0.440018 0 0)
(0.440016 0 0)
(0.440014 0 0)
(0.440012 0 0)
(0.44001 0 0)
(0.440008 0 0)
(0.440006 0 0)
(0.440005 0 0)
(0.440004 0 0)
(0.440002 0 0)
(0.440001 0 0)
(0.44 0 0)
(0.439999 0 0)
(0.439998 0 0)
(0.439998 0 0)
(0.439997 0 0)
(0.439996 0 0)
(0.439996 0 0)
(0.439995 0 0)
(0.439994 0 0)
(0.439994 0 0)
(0.439994 0 0)
(0.439993 0 0)
(0.439993 0 0)
(0.439992 0 0)
(0.439992 0 0)
(0.439992 0 0)
(0.439992 0 0)
(0.439991 0 0)
(0.439991 0 0)
(0.439991 0 0)
(0.439991 0 0)
(0.439991 0 0)
(0.43999 0 0)
(0.43999 0 0)
(0.43999 0 0)
(0.43999 0 0)
(0.43999 0 0)
(0.43999 0 0)
(0.43999 0 0)
(0.43999 0 0)
(0.43999 0 0)
(0.43999 0 0)
(0.43999 0 0)
(0.439989 0 0)
(0.439989 0 0)
(0.439989 0 0)
(0.439989 0 0)
(0.439989 0 0)
(0.439989 0 0)
(0.439989 0 0)
(0.439989 0 0)
(0.439989 0 0)
(0.439989 0 0)
(0.439989 0 0)
(0.439989 0 0)
(0.439989 0 0)
(0.439989 0 0)
(0.439989 0 0)
(0.439989 0 0)
(0.439989 0 0)
(0.439989 0 0)
(0.439989 0 0)
(0.439989 0 0)
(0.439989 0 0)
(0.439989 0 0)
(0.439989 0 0)
(0.439989 0 0)
(0.439989 0 0)
(0.439989 0 0)
(0.439989 0 0)
(0.439989 0 0)
(0.439989 0 0)
(0.439989 0 0)
(0.439989 0 0)
(0.439989 0 0)
(0.439989 0 0)
(0.439989 0 0)
(0.439989 0 0)
(0.439989 0 0)
(0.439989 0 0)
(0.439989 0 0)
(0.439989 0 0)
(0.439989 0 0)
(0.439989 0 0)
(0.439989 0 0)
(0.439989 0 0)
(0.439989 0 0)
(0.439989 0 0)
(0.439989 0 0)
(0.439989 0 0)
(0.439989 0 0)
(0.439989 0 0)
(0.439989 0 0)
(0.439989 0 0)
(0.439989 0 0)
(0.439989 0 0)
(0.439989 0 0)
(0.439989 0 0)
(0.439989 0 0)
(0.439989 0 0)
(0.439989 0 0)
(0.439989 0 0)
(0.439989 0 0)
(0.439989 0 0)
(0.439989 0 0)
(0.439989 0 0)
(0.439989 0 0)
(0.439989 0 0)
(0.439989 0 0)
(0.439989 0 0)
(0.439989 0 0)
(0.439989 0 0)
(0.439989 0 0)
(0.439989 0 0)
(0.439989 0 0)
(0.439989 0 0)
(0.439989 0 0)
(0.439989 0 0)
(0.439989 0 0)
(0.439989 0 0)
(0.439989 0 0)
(0.439989 0 0)
(0.439989 0 0)
(0.439989 0 0)
(0.439989 0 0)
(0.439989 0 0)
(0.439989 0 0)
(0.439989 0 0)
(0.439989 0 0)
(0.439989 0 0)
(0.439989 0 0)
(0.439989 0 0)
(0.439989 0 0)
(0.439989 0 0)
(0.439989 0 0)
(0.439989 0 0)
(0.439989 0 0)
(0.439989 0 0)
(0.439989 0 0)
(0.439989 0 0)
(0.439989 0 0)
(0.439989 0 0)
(0.439989 0 0)
(0.439989 0 0)
(0.439989 0 0)
(0.439989 0 0)
(0.439989 0 0)
(0.439989 0 0)
(0.439989 0 0)
(0.439989 0 0)
(0.439989 0 0)
(0.439989 0 0)
(0.439989 0 0)
(0.439989 0 0)
(0.439989 0 0)
(0.439989 0 0)
(0.439989 0 0)
(0.439989 0 0)
(0.439989 0 0)
(0.439989 0 0)
(0.439989 0 0)
(0.439989 0 0)
(0.439989 0 0)
(0.439989 0 0)
(0.439989 0 0)
(0.439989 0 0)
(0.439989 0 0)
(0.439989 0 0)
(0.439989 0 0)
(0.439989 0 0)
(0.439989 0 0)
(0.439989 0 0)
(0.439989 0 0)
(0.439989 0 0)
(0.439989 0 0)
)
;

boundaryField
{
    topWall
    {
        type            empty;
    }
    bottomWall
    {
        type            empty;
    }
    leftAndRight_half1
    {
        type            cyclic;
    }
    leftAndRight_half0
    {
        type            cyclic;
    }
    frontAndBack
    {
        type            empty;
    }
}


// ************************************************************************* //
