/*--------------------------------*- C++ -*----------------------------------*\
  =========                 |
  \\      /  F ield         | OpenFOAM: The Open Source CFD Toolbox
   \\    /   O peration     | Website:  https://openfoam.org
    \\  /    A nd           | Version:  9
     \\/     M anipulation  |
\*---------------------------------------------------------------------------*/
FoamFile
{
    format      ascii;
    class       volScalarField;
    location    "0.85";
    object      f_1;
}
// * * * * * * * * * * * * * * * * * * * * * * * * * * * * * * * * * * * * * //

dimensions      [1 -3 0 0 0 0 0];

internalField   nonuniform List<scalar> 
1000
(
168.883
168.883
168.883
168.883
168.882
168.882
168.882
168.882
168.882
168.882
168.882
168.882
168.882
168.882
168.882
168.882
168.882
168.882
168.882
168.882
168.882
168.882
168.882
168.882
168.882
168.882
168.882
168.881
168.881
168.881
168.881
168.881
168.881
168.881
168.881
168.881
168.881
168.881
168.881
168.881
168.881
168.881
168.881
168.881
168.881
168.881
168.881
168.881
168.881
168.881
168.881
168.881
168.881
168.881
168.881
168.881
168.881
168.881
168.881
168.881
168.881
168.881
168.881
168.881
168.881
168.881
168.881
168.881
168.881
168.881
168.881
168.881
168.881
168.881
168.881
168.881
168.881
168.881
168.881
168.881
168.881
168.881
168.881
168.881
168.881
168.881
168.881
168.881
168.881
168.881
168.881
168.881
168.881
168.881
168.881
168.881
168.881
168.881
168.881
168.881
168.881
168.881
168.881
168.881
168.881
168.881
168.881
168.881
168.881
168.881
168.881
168.882
168.882
168.882
168.882
168.882
168.882
168.882
168.882
168.882
168.882
168.882
168.882
168.882
168.882
168.882
168.882
168.882
168.882
168.882
168.882
168.882
168.882
168.882
168.882
168.882
168.882
168.882
168.882
168.882
168.882
168.882
168.882
168.882
168.883
168.883
168.883
168.883
168.883
168.883
168.883
168.883
168.883
168.883
168.883
168.883
168.883
168.883
168.884
168.884
168.884
168.884
168.884
168.884
168.884
168.884
168.884
168.885
168.885
168.885
168.885
168.885
168.885
168.886
168.886
168.886
168.886
168.886
168.886
168.887
168.887
168.887
168.887
168.888
168.888
168.888
168.888
168.889
168.889
168.889
168.889
168.89
168.89
168.89
168.891
168.891
168.891
168.892
168.892
168.893
168.893
168.893
168.894
168.894
168.895
168.895
168.896
168.896
168.897
168.897
168.898
168.898
168.899
168.9
168.9
168.901
168.902
168.902
168.903
168.904
168.904
168.905
168.906
168.907
168.908
168.909
168.91
168.91
168.911
168.912
168.913
168.914
168.915
168.917
168.918
168.919
168.92
168.921
168.922
168.924
168.925
168.926
168.928
168.929
168.931
168.932
168.934
168.935
168.937
168.939
168.94
168.942
168.944
168.946
168.948
168.95
168.952
168.954
168.956
168.958
168.96
168.962
168.965
168.967
168.97
168.972
168.975
168.977
168.98
168.982
168.985
168.988
168.991
168.994
168.997
169
169.003
169.007
169.01
169.013
169.017
169.02
169.024
169.028
169.031
169.035
169.039
169.043
169.047
169.052
169.056
169.06
169.065
169.069
169.074
169.079
169.083
169.088
169.093
169.098
169.104
169.109
169.114
169.12
169.125
169.131
169.137
169.143
169.149
169.155
169.161
169.168
169.174
169.181
169.187
169.194
169.201
169.208
169.216
169.223
169.23
169.238
169.246
169.253
169.261
169.269
169.278
169.286
169.294
169.303
169.312
169.321
169.33
169.339
169.348
169.357
169.367
169.377
169.387
169.397
169.407
169.417
169.428
169.438
169.449
169.46
169.471
169.482
169.493
169.505
169.517
169.528
169.54
169.552
169.565
169.577
169.59
169.603
169.616
169.629
169.642
169.655
169.669
169.683
169.697
169.711
169.725
169.739
169.754
169.769
169.784
169.799
169.814
169.83
169.845
169.861
169.877
169.893
169.91
169.926
169.943
169.96
169.977
169.994
170.011
170.029
170.047
170.064
170.083
170.101
170.119
170.138
170.157
170.176
170.195
170.214
170.234
170.253
170.273
170.293
170.314
170.334
170.355
170.376
170.396
170.418
170.439
170.46
170.482
170.504
170.526
170.548
170.571
170.593
170.616
170.639
170.662
170.685
170.709
170.733
170.756
170.78
170.805
170.829
170.854
170.878
170.903
170.928
170.954
170.979
171.005
171.03
171.056
171.082
171.109
171.135
171.162
171.189
171.216
171.243
171.27
171.298
171.325
171.353
171.381
171.409
171.438
171.466
171.495
171.524
171.553
171.582
171.611
171.641
171.671
171.7
171.73
171.761
171.791
171.821
171.852
171.883
171.914
171.945
171.976
172.008
172.039
172.071
172.103
172.135
172.167
172.2
172.232
172.265
172.298
172.331
172.364
172.397
172.43
172.464
172.498
172.532
172.566
172.6
172.634
172.669
172.703
172.738
172.773
172.808
172.843
172.878
172.914
172.949
172.985
173.021
173.057
173.093
173.129
173.165
173.202
173.239
173.275
173.312
173.349
173.387
173.424
173.461
173.499
173.536
173.574
173.612
173.65
173.688
173.727
173.765
173.804
173.842
173.881
173.92
173.959
173.998
174.038
174.077
174.117
174.156
174.196
174.236
174.276
174.316
174.356
174.396
174.437
174.477
174.518
174.559
174.599
174.64
174.681
174.723
174.764
174.805
174.847
174.888
174.93
174.972
175.014
175.056
175.098
175.14
175.182
175.225
175.267
175.31
175.353
175.395
175.438
175.481
175.524
175.568
175.611
175.654
175.698
175.741
175.785
175.829
175.872
175.916
175.96
176.004
176.049
176.093
176.137
176.182
176.226
176.271
176.315
176.36
176.405
176.45
176.495
176.54
176.585
176.631
176.676
176.721
176.767
176.812
176.858
176.904
176.95
176.995
177.041
177.087
177.133
177.18
177.226
177.272
177.319
177.365
177.411
177.458
177.505
177.551
177.598
177.645
177.692
177.739
177.786
177.833
177.88
177.928
177.975
178.022
178.07
178.117
178.165
178.212
178.26
178.308
178.355
178.403
178.451
178.499
178.547
178.595
178.643
178.691
178.739
178.788
178.836
178.884
178.933
178.981
179.03
179.078
179.127
179.175
179.224
179.272
179.321
179.37
179.419
179.467
179.516
179.565
179.614
179.663
179.712
179.761
179.81
179.859
179.908
179.957
180.006
180.055
180.104
180.154
180.203
180.252
180.301
180.35
180.399
180.449
180.498
180.547
180.596
180.645
180.694
180.744
180.793
180.842
180.891
180.94
180.989
181.038
181.087
181.136
181.185
181.234
181.283
181.331
181.38
181.429
181.477
181.526
181.574
181.623
181.671
181.719
181.767
181.815
181.863
181.911
181.959
182.006
182.054
182.101
182.148
182.195
182.242
182.289
182.335
182.382
182.428
182.474
182.52
182.565
182.61
182.655
182.7
182.745
182.789
182.833
182.876
182.92
182.963
183.005
183.048
183.09
183.131
183.172
183.213
183.253
183.293
183.332
183.371
183.409
183.447
183.484
183.52
183.556
183.592
183.626
183.66
183.693
183.725
183.757
183.788
183.817
183.846
183.874
183.901
183.927
183.952
183.976
183.999
184.021
184.041
184.06
184.078
184.094
184.109
184.123
184.135
184.145
184.154
184.161
184.166
184.169
184.171
184.171
184.168
184.164
184.157
184.149
184.137
184.124
184.108
184.09
184.069
184.045
184.018
183.989
183.957
183.922
183.884
183.843
183.798
183.75
183.699
183.645
183.586
183.525
183.46
183.391
183.318
183.241
183.161
183.077
182.988
182.896
182.8
182.699
182.595
182.486
182.373
182.256
182.135
182.01
181.881
181.747
181.61
181.469
181.323
181.174
181.022
180.865
180.705
180.542
180.375
180.205
180.032
179.856
179.677
179.495
179.312
179.126
178.937
178.747
178.556
178.363
178.169
177.973
177.777
177.58
177.383
177.186
176.989
176.792
176.596
176.4
176.206
176.012
175.82
175.629
175.44
175.253
175.068
174.886
174.705
174.527
174.352
174.18
174.01
173.844
173.68
173.52
173.363
173.209
173.059
172.912
172.768
172.629
172.492
172.359
172.23
172.104
171.982
171.863
171.747
171.635
171.527
171.422
171.32
171.221
171.126
171.034
170.945
170.859
170.776
170.696
170.619
170.545
170.473
170.404
170.338
170.274
170.213
170.154
170.097
170.042
169.99
169.94
169.892
169.846
169.802
169.759
169.719
169.68
169.642
169.607
169.573
169.54
169.509
169.479
169.45
169.423
169.397
169.372
169.348
169.326
169.304
169.283
169.263
169.245
169.227
169.21
169.193
169.178
169.163
169.149
169.135
169.122
169.11
169.099
169.088
169.077
169.067
169.058
169.048
169.04
169.032
169.024
169.016
169.009
169.003
168.996
168.99
168.985
168.979
168.974
168.969
168.964
168.96
168.956
168.952
168.948
168.944
168.941
168.938
168.935
168.932
168.929
168.926
168.924
168.922
168.919
168.917
168.915
168.913
168.912
168.91
168.908
168.907
168.905
168.904
168.903
168.902
168.9
168.899
168.898
168.897
168.896
168.896
168.895
168.894
168.893
168.893
168.892
168.891
168.891
168.89
168.89
168.889
168.889
168.888
168.888
168.887
168.887
168.887
168.886
168.886
168.886
168.886
168.885
168.885
168.885
168.885
168.884
168.884
168.884
168.884
168.884
168.884
168.883
168.883
168.883
168.883
168.883
)
;

boundaryField
{
    topWall
    {
        type            empty;
    }
    bottomWall
    {
        type            empty;
    }
    leftAndRight_half1
    {
        type            cyclic;
    }
    leftAndRight_half0
    {
        type            cyclic;
    }
    frontAndBack
    {
        type            empty;
    }
}


// ************************************************************************* //
