/*--------------------------------*- C++ -*----------------------------------*\
  =========                 |
  \\      /  F ield         | OpenFOAM: The Open Source CFD Toolbox
   \\    /   O peration     | Website:  https://openfoam.org
    \\  /    A nd           | Version:  9
     \\/     M anipulation  |
\*---------------------------------------------------------------------------*/
FoamFile
{
    format      ascii;
    class       volScalarField;
    location    "0.85";
    object      f_2;
}
// * * * * * * * * * * * * * * * * * * * * * * * * * * * * * * * * * * * * * //

dimensions      [1 -3 0 0 0 0 0];

internalField   nonuniform List<scalar> 
1000
(
164.48
164.48
164.48
164.48
164.48
164.48
164.48
164.48
164.48
164.48
164.48
164.481
164.481
164.481
164.481
164.481
164.481
164.481
164.481
164.481
164.481
164.481
164.481
164.481
164.481
164.481
164.481
164.481
164.481
164.481
164.481
164.481
164.481
164.481
164.481
164.481
164.481
164.481
164.481
164.481
164.481
164.481
164.481
164.481
164.481
164.481
164.481
164.481
164.481
164.481
164.481
164.481
164.481
164.481
164.481
164.481
164.481
164.481
164.481
164.481
164.481
164.481
164.481
164.481
164.481
164.481
164.481
164.481
164.481
164.481
164.481
164.481
164.481
164.481
164.481
164.481
164.481
164.481
164.481
164.481
164.481
164.481
164.481
164.481
164.481
164.481
164.481
164.481
164.481
164.481
164.481
164.481
164.481
164.481
164.481
164.481
164.481
164.481
164.481
164.481
164.481
164.481
164.481
164.481
164.481
164.481
164.481
164.481
164.481
164.481
164.481
164.481
164.481
164.481
164.481
164.481
164.481
164.481
164.481
164.481
164.481
164.481
164.481
164.481
164.481
164.481
164.481
164.48
164.48
164.48
164.48
164.48
164.48
164.48
164.48
164.48
164.48
164.48
164.48
164.48
164.48
164.48
164.48
164.48
164.48
164.48
164.48
164.48
164.479
164.479
164.479
164.479
164.479
164.479
164.479
164.479
164.479
164.479
164.479
164.478
164.478
164.478
164.478
164.478
164.478
164.478
164.478
164.477
164.477
164.477
164.477
164.477
164.477
164.477
164.476
164.476
164.476
164.476
164.476
164.475
164.475
164.475
164.475
164.474
164.474
164.474
164.474
164.473
164.473
164.473
164.472
164.472
164.472
164.471
164.471
164.471
164.47
164.47
164.469
164.469
164.469
164.468
164.468
164.467
164.467
164.466
164.466
164.465
164.465
164.464
164.463
164.463
164.462
164.462
164.461
164.46
164.46
164.459
164.458
164.457
164.456
164.456
164.455
164.454
164.453
164.452
164.451
164.45
164.449
164.448
164.447
164.446
164.445
164.444
164.443
164.441
164.44
164.439
164.438
164.436
164.435
164.434
164.432
164.431
164.429
164.427
164.426
164.424
164.422
164.421
164.419
164.417
164.415
164.413
164.411
164.409
164.407
164.405
164.403
164.401
164.399
164.396
164.394
164.391
164.389
164.386
164.384
164.381
164.378
164.375
164.373
164.37
164.367
164.364
164.36
164.357
164.354
164.351
164.347
164.344
164.34
164.337
164.333
164.329
164.325
164.321
164.317
164.313
164.309
164.305
164.3
164.296
164.291
164.286
164.282
164.277
164.272
164.267
164.262
164.257
164.251
164.246
164.24
164.235
164.229
164.223
164.217
164.211
164.205
164.199
164.193
164.186
164.18
164.173
164.166
164.159
164.152
164.145
164.138
164.13
164.123
164.115
164.107
164.099
164.091
164.083
164.075
164.066
164.058
164.049
164.04
164.031
164.022
164.013
164.004
163.994
163.985
163.975
163.965
163.955
163.945
163.934
163.924
163.913
163.903
163.892
163.881
163.869
163.858
163.846
163.835
163.823
163.811
163.799
163.787
163.774
163.762
163.749
163.736
163.723
163.71
163.696
163.683
163.669
163.655
163.641
163.627
163.613
163.598
163.584
163.569
163.554
163.539
163.523
163.508
163.492
163.476
163.46
163.444
163.428
163.411
163.395
163.378
163.361
163.344
163.327
163.309
163.291
163.274
163.256
163.237
163.219
163.201
163.182
163.163
163.144
163.125
163.106
163.086
163.067
163.047
163.027
163.007
162.986
162.966
162.945
162.924
162.903
162.882
162.861
162.839
162.818
162.796
162.774
162.752
162.729
162.707
162.684
162.661
162.638
162.615
162.592
162.568
162.545
162.521
162.497
162.473
162.449
162.424
162.4
162.375
162.35
162.325
162.3
162.274
162.249
162.223
162.197
162.171
162.145
162.119
162.093
162.066
162.039
162.012
161.985
161.958
161.931
161.903
161.876
161.848
161.82
161.792
161.764
161.735
161.707
161.678
161.65
161.621
161.592
161.562
161.533
161.504
161.474
161.444
161.414
161.384
161.354
161.324
161.294
161.263
161.232
161.202
161.171
161.14
161.108
161.077
161.046
161.014
160.982
160.951
160.919
160.887
160.854
160.822
160.79
160.757
160.725
160.692
160.659
160.626
160.593
160.56
160.526
160.493
160.459
160.426
160.392
160.358
160.324
160.29
160.256
160.221
160.187
160.152
160.118
160.083
160.048
160.013
159.978
159.943
159.908
159.873
159.837
159.802
159.766
159.73
159.695
159.659
159.623
159.587
159.55
159.514
159.478
159.441
159.405
159.368
159.332
159.295
159.258
159.221
159.184
159.147
159.11
159.072
159.035
158.998
158.96
158.922
158.885
158.847
158.809
158.771
158.733
158.695
158.657
158.619
158.581
158.542
158.504
158.465
158.427
158.388
158.35
158.311
158.272
158.233
158.194
158.155
158.116
158.077
158.038
157.998
157.959
157.92
157.88
157.841
157.801
157.761
157.722
157.682
157.642
157.602
157.562
157.523
157.482
157.442
157.402
157.362
157.322
157.282
157.241
157.201
157.16
157.12
157.079
157.039
156.998
156.958
156.917
156.876
156.835
156.795
156.754
156.713
156.672
156.631
156.59
156.549
156.508
156.466
156.425
156.384
156.343
156.301
156.26
156.219
156.177
156.136
156.094
156.053
156.011
155.97
155.928
155.886
155.845
155.803
155.761
155.72
155.678
155.636
155.594
155.553
155.511
155.469
155.427
155.385
155.343
155.301
155.259
155.217
155.175
155.133
155.091
155.049
155.007
154.965
154.923
154.881
154.839
154.797
154.755
154.713
154.67
154.628
154.586
154.544
154.502
154.46
154.418
154.376
154.334
154.291
154.249
154.207
154.165
154.123
154.081
154.039
153.997
153.955
153.913
153.871
153.83
153.788
153.746
153.704
153.662
153.62
153.579
153.537
153.496
153.454
153.412
153.371
153.33
153.288
153.247
153.206
153.165
153.123
153.082
153.041
153.001
152.96
152.919
152.879
152.838
152.798
152.757
152.717
152.677
152.637
152.597
152.558
152.518
152.479
152.439
152.4
152.361
152.323
152.284
152.246
152.207
152.169
152.132
152.094
152.057
152.02
151.983
151.946
151.91
151.874
151.838
151.802
151.767
151.732
151.698
151.664
151.63
151.596
151.563
151.531
151.499
151.467
151.435
151.405
151.374
151.345
151.315
151.287
151.259
151.231
151.204
151.178
151.152
151.128
151.104
151.08
151.058
151.036
151.015
150.995
150.976
150.958
150.941
150.925
150.91
150.896
150.883
150.872
150.861
150.852
150.845
150.838
150.833
150.83
150.828
150.828
150.829
150.832
150.836
150.843
150.851
150.861
150.874
150.888
150.904
150.923
150.944
150.967
150.992
151.02
151.05
151.083
151.118
151.157
151.197
151.241
151.288
151.337
151.39
151.446
151.504
151.566
151.632
151.7
151.772
151.847
151.926
152.008
152.093
152.182
152.275
152.371
152.471
152.575
152.682
152.792
152.906
153.024
153.145
153.269
153.397
153.529
153.663
153.801
153.942
154.086
154.233
154.383
154.536
154.691
154.849
155.008
155.171
155.335
155.501
155.668
155.838
156.008
156.18
156.353
156.526
156.7
156.875
157.049
157.224
157.398
157.573
157.746
157.919
158.091
158.262
158.431
158.599
158.766
158.931
159.093
159.254
159.413
159.569
159.723
159.874
160.023
160.169
160.313
160.453
160.591
160.725
160.857
160.986
161.111
161.233
161.353
161.469
161.582
161.692
161.798
161.902
162.003
162.1
162.195
162.286
162.375
162.461
162.543
162.624
162.701
162.776
162.848
162.917
162.984
163.049
163.111
163.17
163.228
163.283
163.336
163.387
163.436
163.484
163.529
163.572
163.614
163.654
163.692
163.728
163.763
163.797
163.829
163.86
163.889
163.917
163.944
163.97
163.995
164.018
164.04
164.062
164.082
164.102
164.12
164.138
164.155
164.171
164.187
164.201
164.215
164.229
164.241
164.253
164.265
164.276
164.286
164.296
164.306
164.315
164.323
164.331
164.339
164.347
164.354
164.36
164.367
164.373
164.378
164.384
164.389
164.394
164.398
164.403
164.407
164.411
164.415
164.418
164.422
164.425
164.428
164.431
164.433
164.436
164.438
164.441
164.443
164.445
164.447
164.449
164.451
164.452
164.454
164.456
164.457
164.458
164.46
164.461
164.462
164.463
164.464
164.465
164.466
164.467
164.468
164.468
164.469
164.47
164.47
164.471
164.472
164.472
164.473
164.473
164.474
164.474
164.475
164.475
164.475
164.476
164.476
164.476
164.477
164.477
164.477
164.477
164.478
164.478
164.478
164.478
164.478
164.479
164.479
164.479
164.479
164.479
164.479
164.479
164.479
164.48
164.48
164.48
)
;

boundaryField
{
    topWall
    {
        type            empty;
    }
    bottomWall
    {
        type            empty;
    }
    leftAndRight_half1
    {
        type            cyclic;
    }
    leftAndRight_half0
    {
        type            cyclic;
    }
    frontAndBack
    {
        type            empty;
    }
}


// ************************************************************************* //
