/*--------------------------------*- C++ -*----------------------------------*\
  =========                 |
  \\      /  F ield         | OpenFOAM: The Open Source CFD Toolbox
   \\    /   O peration     | Website:  https://openfoam.org
    \\  /    A nd           | Version:  9
     \\/     M anipulation  |
\*---------------------------------------------------------------------------*/
FoamFile
{
    format      ascii;
    class       volScalarField;
    location    "0.85";
    object      p;
}
// * * * * * * * * * * * * * * * * * * * * * * * * * * * * * * * * * * * * * //

dimensions      [1 -1 -2 0 0 0 0];

internalField   nonuniform List<scalar> 
1000
(
100098
100098
100098
100098
100098
100098
100098
100098
100098
100098
100098
100098
100098
100097
100097
100097
100097
100097
100097
100097
100097
100097
100097
100097
100097
100097
100097
100097
100097
100097
100097
100097
100097
100097
100097
100097
100097
100097
100097
100097
100097
100097
100097
100097
100097
100097
100097
100097
100097
100097
100097
100097
100097
100097
100097
100097
100097
100097
100097
100097
100097
100097
100097
100097
100097
100097
100097
100097
100097
100097
100097
100097
100097
100097
100097
100097
100097
100097
100097
100097
100097
100097
100097
100097
100097
100097
100097
100097
100097
100097
100097
100097
100097
100097
100097
100097
100097
100097
100097
100097
100097
100097
100097
100097
100097
100097
100097
100097
100097
100097
100097
100097
100097
100097
100097
100097
100097
100097
100097
100097
100097
100096
100096
100096
100096
100096
100096
100096
100096
100096
100096
100096
100096
100096
100096
100096
100096
100096
100096
100096
100096
100096
100096
100096
100096
100096
100096
100096
100096
100096
100096
100096
100096
100096
100096
100096
100096
100096
100095
100095
100095
100095
100095
100095
100095
100095
100095
100095
100095
100095
100095
100095
100095
100095
100094
100094
100094
100094
100094
100094
100094
100094
100094
100094
100094
100093
100093
100093
100093
100093
100093
100093
100093
100092
100092
100092
100092
100092
100092
100092
100091
100091
100091
100091
100091
100090
100090
100090
100090
100090
100089
100089
100089
100089
100088
100088
100088
100088
100087
100087
100087
100087
100086
100086
100086
100085
100085
100085
100084
100084
100084
100083
100083
100083
100082
100082
100082
100081
100081
100080
100080
100079
100079
100079
100078
100078
100077
100077
100076
100076
100075
100075
100074
100073
100073
100072
100072
100071
100071
100070
100069
100069
100068
100067
100067
100066
100066
100065
100064
100063
100063
100062
100061
100060
100060
100059
100058
100057
100057
100056
100055
100054
100053
100052
100052
100051
100050
100049
100048
100047
100046
100045
100044
100043
100042
100041
100040
100040
100039
100038
100037
100035
100034
100033
100032
100031
100030
100029
100028
100027
100026
100025
100024
100023
100022
100021
100019
100018
100017
100016
100015
100014
100013
100012
100010
100009
100008
100007
100006
100005
100004
100003
100001
100000
99999.1
99998
99996.9
99995.7
99994.6
99993.5
99992.4
99991.3
99990.2
99989.1
99988
99986.9
99985.9
99984.8
99983.8
99982.7
99981.7
99980.7
99979.7
99978.7
99977.7
99976.7
99975.7
99974.8
99973.9
99973
99972
99971.2
99970.3
99969.4
99968.6
99967.8
99967
99966.2
99965.5
99964.7
99964
99963.3
99962.7
99962
99961.4
99960.8
99960.3
99959.7
99959.2
99958.7
99958.3
99957.8
99957.4
99957.1
99956.7
99956.4
99956.1
99955.9
99955.7
99955.5
99955.4
99955.3
99955.2
99955.2
99955.2
99955.2
99955.3
99955.4
99955.6
99955.8
99956
99956.3
99956.6
99957
99957.4
99957.9
99958.4
99959
99959.6
99960.2
99960.9
99961.6
99962.4
99963.3
99964.2
99965.1
99966.1
99967.2
99968.3
99969.4
99970.6
99971.9
99973.2
99974.6
99976
99977.5
99979.1
99980.7
99982.4
99984.1
99985.9
99987.7
99989.7
99991.6
99993.7
99995.8
99997.9
100000
100002
100005
100007
100010
100012
100015
100018
100020
100023
100026
100029
100032
100035
100038
100042
100045
100049
100052
100056
100059
100063
100067
100071
100074
100079
100083
100087
100091
100095
100100
100104
100109
100114
100118
100123
100128
100133
100138
100143
100148
100154
100159
100165
100170
100176
100182
100187
100193
100199
100205
100212
100218
100224
100231
100237
100244
100251
100257
100264
100271
100278
100286
100293
100300
100308
100315
100323
100331
100338
100346
100354
100362
100371
100379
100387
100396
100404
100413
100422
100431
100440
100449
100458
100467
100477
100486
100496
100505
100515
100525
100535
100545
100555
100565
100576
100586
100597
100607
100618
100629
100640
100651
100662
100673
100685
100696
100708
100719
100731
100743
100755
100767
100779
100792
100804
100817
100829
100842
100855
100868
100881
100894
100907
100920
100934
100947
100961
100975
100989
101003
101017
101031
101045
101059
101074
101089
101103
101118
101133
101148
101163
101178
101194
101209
101225
101241
101256
101272
101288
101304
101321
101337
101353
101370
101386
101403
101420
101437
101454
101471
101489
101506
101524
101541
101559
101577
101595
101613
101631
101649
101668
101686
101705
101723
101742
101761
101780
101799
101819
101838
101857
101877
101897
101917
101936
101957
101977
101997
102017
102038
102058
102079
102100
102121
102142
102163
102184
102205
102227
102248
102270
102292
102314
102336
102358
102380
102402
102425
102447
102470
102493
102516
102539
102562
102585
102608
102632
102655
102679
102703
102726
102750
102775
102799
102823
102847
102872
102896
102921
102946
102971
102996
103021
103046
103072
103097
103123
103148
103174
103200
103226
103252
103278
103304
103331
103357
103384
103411
103437
103464
103491
103518
103545
103573
103600
103628
103655
103683
103711
103738
103766
103794
103822
103851
103879
103907
103936
103964
103993
104022
104050
104079
104108
104137
104166
104196
104225
104254
104283
104313
104342
104372
104402
104431
104461
104491
104520
104550
104580
104610
104640
104670
104700
104730
104760
104790
104820
104850
104880
104910
104940
104970
105000
105030
105060
105090
105120
105149
105179
105209
105238
105267
105296
105326
105354
105383
105412
105440
105468
105496
105524
105551
105579
105605
105632
105658
105684
105710
105735
105759
105784
105807
105830
105853
105875
105896
105917
105937
105957
105975
105993
106010
106026
106041
106055
106068
106079
106090
106100
106108
106115
106120
106124
106127
106128
106127
106125
106121
106115
106107
106098
106086
106072
106057
106039
106019
105996
105972
105945
105915
105884
105849
105813
105774
105732
105688
105641
105592
105541
105487
105431
105372
105311
105248
105182
105115
105045
104973
104900
104824
104747
104669
104588
104507
104424
104340
104256
104170
104083
103996
103909
103821
103733
103644
103556
103468
103381
103293
103206
103120
103035
102950
102866
102783
102701
102621
102541
102463
102386
102311
102237
102165
102094
102024
101956
101890
101826
101763
101701
101642
101584
101527
101472
101419
101367
101317
101269
101222
101177
101133
101090
101049
101010
100972
100935
100899
100865
100832
100800
100770
100741
100712
100685
100659
100634
100610
100587
100565
100544
100523
100504
100485
100467
100450
100433
100418
100403
100388
100375
100361
100349
100337
100325
100314
100304
100294
100284
100275
100266
100258
100250
100243
100235
100228
100222
100216
100210
100204
100199
100194
100189
100184
100180
100175
100171
100167
100164
100160
100157
100154
100151
100148
100146
100143
100141
100138
100136
100134
100132
100130
100128
100127
100125
100124
100122
100121
100119
100118
100117
100116
100115
100114
100113
100112
100111
100110
100110
100109
100108
100108
100107
100107
100106
100105
100105
100105
100104
100104
100103
100103
100103
100102
100102
100102
100101
100101
100101
100101
100100
100100
100100
100100
100100
100099
100099
100099
100099
100099
100099
100099
100099
100098
)
;

boundaryField
{
    topWall
    {
        type            empty;
    }
    bottomWall
    {
        type            empty;
    }
    leftAndRight_half1
    {
        type            cyclic;
    }
    leftAndRight_half0
    {
        type            cyclic;
    }
    frontAndBack
    {
        type            empty;
    }
}


// ************************************************************************* //
