/*--------------------------------*- C++ -*----------------------------------*\
  =========                 |
  \\      /  F ield         | OpenFOAM: The Open Source CFD Toolbox
   \\    /   O peration     | Website:  https://openfoam.org
    \\  /    A nd           | Version:  9
     \\/     M anipulation  |
\*---------------------------------------------------------------------------*/
FoamFile
{
    format      ascii;
    class       volVectorField;
    location    "0.85";
    object      U;
}
// * * * * * * * * * * * * * * * * * * * * * * * * * * * * * * * * * * * * * //

dimensions      [0 1 -1 0 0 0 0];

internalField   nonuniform List<vector> 
1000
(
(0.440286 0 0)
(0.440268 0 0)
(0.440251 0 0)
(0.440235 0 0)
(0.44022 0 0)
(0.440206 0 0)
(0.440193 0 0)
(0.44018 0 0)
(0.440168 0 0)
(0.440157 0 0)
(0.440147 0 0)
(0.440137 0 0)
(0.440128 0 0)
(0.440119 0 0)
(0.440111 0 0)
(0.440104 0 0)
(0.440096 0 0)
(0.44009 0 0)
(0.440084 0 0)
(0.440078 0 0)
(0.440072 0 0)
(0.440067 0 0)
(0.440062 0 0)
(0.440058 0 0)
(0.440053 0 0)
(0.440049 0 0)
(0.440046 0 0)
(0.440042 0 0)
(0.440039 0 0)
(0.440036 0 0)
(0.440033 0 0)
(0.44003 0 0)
(0.440028 0 0)
(0.440025 0 0)
(0.440023 0 0)
(0.440021 0 0)
(0.440019 0 0)
(0.440017 0 0)
(0.440016 0 0)
(0.440014 0 0)
(0.440013 0 0)
(0.440011 0 0)
(0.44001 0 0)
(0.440009 0 0)
(0.440008 0 0)
(0.440007 0 0)
(0.440006 0 0)
(0.440005 0 0)
(0.440005 0 0)
(0.440004 0 0)
(0.440003 0 0)
(0.440003 0 0)
(0.440002 0 0)
(0.440002 0 0)
(0.440001 0 0)
(0.440001 0 0)
(0.440001 0 0)
(0.44 0 0)
(0.44 0 0)
(0.44 0 0)
(0.44 0 0)
(0.44 0 0)
(0.44 0 0)
(0.44 0 0)
(0.44 0 0)
(0.44 0 0)
(0.44 0 0)
(0.44 0 0)
(0.44 0 0)
(0.440001 0 0)
(0.440001 0 0)
(0.440001 0 0)
(0.440001 0 0)
(0.440002 0 0)
(0.440002 0 0)
(0.440003 0 0)
(0.440003 0 0)
(0.440004 0 0)
(0.440004 0 0)
(0.440005 0 0)
(0.440005 0 0)
(0.440006 0 0)
(0.440007 0 0)
(0.440007 0 0)
(0.440008 0 0)
(0.440009 0 0)
(0.44001 0 0)
(0.440011 0 0)
(0.440012 0 0)
(0.440013 0 0)
(0.440014 0 0)
(0.440015 0 0)
(0.440016 0 0)
(0.440018 0 0)
(0.440019 0 0)
(0.440021 0 0)
(0.440022 0 0)
(0.440024 0 0)
(0.440025 0 0)
(0.440027 0 0)
(0.440029 0 0)
(0.440031 0 0)
(0.440033 0 0)
(0.440035 0 0)
(0.440037 0 0)
(0.440039 0 0)
(0.440041 0 0)
(0.440044 0 0)
(0.440047 0 0)
(0.440049 0 0)
(0.440052 0 0)
(0.440055 0 0)
(0.440058 0 0)
(0.440061 0 0)
(0.440065 0 0)
(0.440068 0 0)
(0.440072 0 0)
(0.440076 0 0)
(0.44008 0 0)
(0.440084 0 0)
(0.440088 0 0)
(0.440093 0 0)
(0.440097 0 0)
(0.440102 0 0)
(0.440108 0 0)
(0.440113 0 0)
(0.440119 0 0)
(0.440124 0 0)
(0.44013 0 0)
(0.440137 0 0)
(0.440143 0 0)
(0.44015 0 0)
(0.440157 0 0)
(0.440165 0 0)
(0.440173 0 0)
(0.440181 0 0)
(0.440189 0 0)
(0.440198 0 0)
(0.440207 0 0)
(0.440216 0 0)
(0.440226 0 0)
(0.440237 0 0)
(0.440247 0 0)
(0.440258 0 0)
(0.44027 0 0)
(0.440282 0 0)
(0.440294 0 0)
(0.440307 0 0)
(0.440321 0 0)
(0.440335 0 0)
(0.44035 0 0)
(0.440365 0 0)
(0.44038 0 0)
(0.440397 0 0)
(0.440414 0 0)
(0.440431 0 0)
(0.44045 0 0)
(0.440469 0 0)
(0.440488 0 0)
(0.440509 0 0)
(0.44053 0 0)
(0.440552 0 0)
(0.440575 0 0)
(0.440599 0 0)
(0.440624 0 0)
(0.440649 0 0)
(0.440676 0 0)
(0.440703 0 0)
(0.440731 0 0)
(0.440761 0 0)
(0.440792 0 0)
(0.440823 0 0)
(0.440856 0 0)
(0.44089 0 0)
(0.440925 0 0)
(0.440962 0 0)
(0.441 0 0)
(0.441039 0 0)
(0.441079 0 0)
(0.441121 0 0)
(0.441165 0 0)
(0.44121 0 0)
(0.441256 0 0)
(0.441304 0 0)
(0.441354 0 0)
(0.441406 0 0)
(0.441459 0 0)
(0.441514 0 0)
(0.441571 0 0)
(0.44163 0 0)
(0.441691 0 0)
(0.441753 0 0)
(0.441818 0 0)
(0.441886 0 0)
(0.441955 0 0)
(0.442027 0 0)
(0.442101 0 0)
(0.442177 0 0)
(0.442256 0 0)
(0.442338 0 0)
(0.442422 0 0)
(0.442509 0 0)
(0.442599 0 0)
(0.442691 0 0)
(0.442787 0 0)
(0.442885 0 0)
(0.442987 0 0)
(0.443092 0 0)
(0.4432 0 0)
(0.443311 0 0)
(0.443426 0 0)
(0.443545 0 0)
(0.443667 0 0)
(0.443793 0 0)
(0.443923 0 0)
(0.444056 0 0)
(0.444194 0 0)
(0.444336 0 0)
(0.444482 0 0)
(0.444632 0 0)
(0.444787 0 0)
(0.444947 0 0)
(0.445111 0 0)
(0.44528 0 0)
(0.445453 0 0)
(0.445632 0 0)
(0.445816 0 0)
(0.446006 0 0)
(0.4462 0 0)
(0.446401 0 0)
(0.446607 0 0)
(0.446818 0 0)
(0.447036 0 0)
(0.44726 0 0)
(0.44749 0 0)
(0.447726 0 0)
(0.447969 0 0)
(0.448218 0 0)
(0.448475 0 0)
(0.448738 0 0)
(0.449008 0 0)
(0.449286 0 0)
(0.449571 0 0)
(0.449863 0 0)
(0.450163 0 0)
(0.450471 0 0)
(0.450787 0 0)
(0.451112 0 0)
(0.451445 0 0)
(0.451786 0 0)
(0.452136 0 0)
(0.452495 0 0)
(0.452863 0 0)
(0.45324 0 0)
(0.453627 0 0)
(0.454024 0 0)
(0.45443 0 0)
(0.454846 0 0)
(0.455273 0 0)
(0.45571 0 0)
(0.456157 0 0)
(0.456615 0 0)
(0.457085 0 0)
(0.457565 0 0)
(0.458057 0 0)
(0.458561 0 0)
(0.459076 0 0)
(0.459604 0 0)
(0.460143 0 0)
(0.460695 0 0)
(0.46126 0 0)
(0.461838 0 0)
(0.462428 0 0)
(0.463032 0 0)
(0.46365 0 0)
(0.464281 0 0)
(0.464927 0 0)
(0.465586 0 0)
(0.46626 0 0)
(0.466949 0 0)
(0.467653 0 0)
(0.468371 0 0)
(0.469105 0 0)
(0.469855 0 0)
(0.470621 0 0)
(0.471402 0 0)
(0.4722 0 0)
(0.473015 0 0)
(0.473846 0 0)
(0.474694 0 0)
(0.47556 0 0)
(0.476443 0 0)
(0.477344 0 0)
(0.478262 0 0)
(0.479199 0 0)
(0.480155 0 0)
(0.481129 0 0)
(0.482122 0 0)
(0.483135 0 0)
(0.484166 0 0)
(0.485218 0 0)
(0.48629 0 0)
(0.487381 0 0)
(0.488493 0 0)
(0.489626 0 0)
(0.49078 0 0)
(0.491955 0 0)
(0.493151 0 0)
(0.494369 0 0)
(0.495609 0 0)
(0.496871 0 0)
(0.498156 0 0)
(0.499463 0 0)
(0.500793 0 0)
(0.502146 0 0)
(0.503522 0 0)
(0.504922 0 0)
(0.506346 0 0)
(0.507794 0 0)
(0.509267 0 0)
(0.510763 0 0)
(0.512285 0 0)
(0.513832 0 0)
(0.515403 0 0)
(0.517001 0 0)
(0.518624 0 0)
(0.520272 0 0)
(0.521947 0 0)
(0.523649 0 0)
(0.525377 0 0)
(0.527132 0 0)
(0.528913 0 0)
(0.530722 0 0)
(0.532559 0 0)
(0.534423 0 0)
(0.536315 0 0)
(0.538235 0 0)
(0.540183 0 0)
(0.54216 0 0)
(0.544166 0 0)
(0.5462 0 0)
(0.548263 0 0)
(0.550356 0 0)
(0.552478 0 0)
(0.55463 0 0)
(0.556811 0 0)
(0.559023 0 0)
(0.561265 0 0)
(0.563537 0 0)
(0.565839 0 0)
(0.568172 0 0)
(0.570536 0 0)
(0.572931 0 0)
(0.575358 0 0)
(0.577815 0 0)
(0.580304 0 0)
(0.582825 0 0)
(0.585377 0 0)
(0.587962 0 0)
(0.590578 0 0)
(0.593227 0 0)
(0.595908 0 0)
(0.598621 0 0)
(0.601367 0 0)
(0.604146 0 0)
(0.606957 0 0)
(0.609801 0 0)
(0.612679 0 0)
(0.61559 0 0)
(0.618533 0 0)
(0.621511 0 0)
(0.624521 0 0)
(0.627566 0 0)
(0.630644 0 0)
(0.633755 0 0)
(0.636901 0 0)
(0.64008 0 0)
(0.643294 0 0)
(0.646541 0 0)
(0.649823 0 0)
(0.653139 0 0)
(0.656489 0 0)
(0.659873 0 0)
(0.663292 0 0)
(0.666745 0 0)
(0.670232 0 0)
(0.673754 0 0)
(0.677311 0 0)
(0.680902 0 0)
(0.684528 0 0)
(0.688189 0 0)
(0.691884 0 0)
(0.695614 0 0)
(0.699378 0 0)
(0.703178 0 0)
(0.707012 0 0)
(0.710881 0 0)
(0.714784 0 0)
(0.718723 0 0)
(0.722696 0 0)
(0.726704 0 0)
(0.730747 0 0)
(0.734824 0 0)
(0.738936 0 0)
(0.743083 0 0)
(0.747265 0 0)
(0.751481 0 0)
(0.755732 0 0)
(0.760018 0 0)
(0.764338 0 0)
(0.768693 0 0)
(0.773082 0 0)
(0.777506 0 0)
(0.781964 0 0)
(0.786456 0 0)
(0.790983 0 0)
(0.795544 0 0)
(0.80014 0 0)
(0.804769 0 0)
(0.809433 0 0)
(0.814131 0 0)
(0.818863 0 0)
(0.823628 0 0)
(0.828428 0 0)
(0.833261 0 0)
(0.838128 0 0)
(0.843028 0 0)
(0.847963 0 0)
(0.85293 0 0)
(0.857931 0 0)
(0.862965 0 0)
(0.868033 0 0)
(0.873133 0 0)
(0.878267 0 0)
(0.883433 0 0)
(0.888632 0 0)
(0.893864 0 0)
(0.899129 0 0)
(0.904426 0 0)
(0.909755 0 0)
(0.915117 0 0)
(0.920511 0 0)
(0.925937 0 0)
(0.931395 0 0)
(0.936885 0 0)
(0.942407 0 0)
(0.94796 0 0)
(0.953545 0 0)
(0.959161 0 0)
(0.964808 0 0)
(0.970486 0 0)
(0.976196 0 0)
(0.981936 0 0)
(0.987707 0 0)
(0.993509 0 0)
(0.999341 0 0)
(1.0052 0 0)
(1.0111 0 0)
(1.01702 0 0)
(1.02297 0 0)
(1.02896 0 0)
(1.03497 0 0)
(1.04101 0 0)
(1.04708 0 0)
(1.05318 0 0)
(1.05931 0 0)
(1.06547 0 0)
(1.07166 0 0)
(1.07787 0 0)
(1.08412 0 0)
(1.09039 0 0)
(1.0967 0 0)
(1.10303 0 0)
(1.10938 0 0)
(1.11577 0 0)
(1.12218 0 0)
(1.12862 0 0)
(1.13509 0 0)
(1.14159 0 0)
(1.14811 0 0)
(1.15466 0 0)
(1.16124 0 0)
(1.16784 0 0)
(1.17447 0 0)
(1.18113 0 0)
(1.18781 0 0)
(1.19452 0 0)
(1.20125 0 0)
(1.20801 0 0)
(1.2148 0 0)
(1.22161 0 0)
(1.22845 0 0)
(1.23531 0 0)
(1.2422 0 0)
(1.24911 0 0)
(1.25604 0 0)
(1.26301 0 0)
(1.26999 0 0)
(1.277 0 0)
(1.28403 0 0)
(1.29109 0 0)
(1.29817 0 0)
(1.30528 0 0)
(1.31241 0 0)
(1.31956 0 0)
(1.32674 0 0)
(1.33394 0 0)
(1.34116 0 0)
(1.3484 0 0)
(1.35567 0 0)
(1.36296 0 0)
(1.37027 0 0)
(1.3776 0 0)
(1.38496 0 0)
(1.39234 0 0)
(1.39974 0 0)
(1.40716 0 0)
(1.4146 0 0)
(1.42207 0 0)
(1.42955 0 0)
(1.43706 0 0)
(1.44458 0 0)
(1.45213 0 0)
(1.4597 0 0)
(1.46729 0 0)
(1.4749 0 0)
(1.48253 0 0)
(1.49018 0 0)
(1.49785 0 0)
(1.50554 0 0)
(1.51324 0 0)
(1.52097 0 0)
(1.52872 0 0)
(1.53649 0 0)
(1.54427 0 0)
(1.55208 0 0)
(1.5599 0 0)
(1.56774 0 0)
(1.5756 0 0)
(1.58348 0 0)
(1.59138 0 0)
(1.59929 0 0)
(1.60722 0 0)
(1.61517 0 0)
(1.62314 0 0)
(1.63113 0 0)
(1.63913 0 0)
(1.64715 0 0)
(1.65519 0 0)
(1.66324 0 0)
(1.67131 0 0)
(1.6794 0 0)
(1.68751 0 0)
(1.69563 0 0)
(1.70376 0 0)
(1.71192 0 0)
(1.72009 0 0)
(1.72827 0 0)
(1.73648 0 0)
(1.74469 0 0)
(1.75293 0 0)
(1.76117 0 0)
(1.76944 0 0)
(1.77772 0 0)
(1.78601 0 0)
(1.79432 0 0)
(1.80264 0 0)
(1.81098 0 0)
(1.81933 0 0)
(1.8277 0 0)
(1.83608 0 0)
(1.84448 0 0)
(1.85289 0 0)
(1.86131 0 0)
(1.86975 0 0)
(1.8782 0 0)
(1.88666 0 0)
(1.89514 0 0)
(1.90363 0 0)
(1.91214 0 0)
(1.92065 0 0)
(1.92918 0 0)
(1.93773 0 0)
(1.94628 0 0)
(1.95485 0 0)
(1.96343 0 0)
(1.97203 0 0)
(1.98063 0 0)
(1.98925 0 0)
(1.99788 0 0)
(2.00652 0 0)
(2.01517 0 0)
(2.02384 0 0)
(2.03251 0 0)
(2.0412 0 0)
(2.0499 0 0)
(2.05861 0 0)
(2.06733 0 0)
(2.07606 0 0)
(2.0848 0 0)
(2.09356 0 0)
(2.10232 0 0)
(2.11109 0 0)
(2.11988 0 0)
(2.12867 0 0)
(2.13747 0 0)
(2.14629 0 0)
(2.15511 0 0)
(2.16394 0 0)
(2.17279 0 0)
(2.18164 0 0)
(2.1905 0 0)
(2.19937 0 0)
(2.20825 0 0)
(2.21713 0 0)
(2.22603 0 0)
(2.23493 0 0)
(2.24384 0 0)
(2.25277 0 0)
(2.26169 0 0)
(2.27063 0 0)
(2.27957 0 0)
(2.28852 0 0)
(2.29748 0 0)
(2.30645 0 0)
(2.31542 0 0)
(2.3244 0 0)
(2.33339 0 0)
(2.34238 0 0)
(2.35138 0 0)
(2.36039 0 0)
(2.3694 0 0)
(2.37842 0 0)
(2.38744 0 0)
(2.39647 0 0)
(2.4055 0 0)
(2.41454 0 0)
(2.42358 0 0)
(2.43263 0 0)
(2.44168 0 0)
(2.45074 0 0)
(2.4598 0 0)
(2.46887 0 0)
(2.47794 0 0)
(2.48701 0 0)
(2.49608 0 0)
(2.50516 0 0)
(2.51424 0 0)
(2.52332 0 0)
(2.53241 0 0)
(2.54149 0 0)
(2.55058 0 0)
(2.55967 0 0)
(2.56876 0 0)
(2.57785 0 0)
(2.58694 0 0)
(2.59603 0 0)
(2.60512 0 0)
(2.61421 0 0)
(2.6233 0 0)
(2.63239 0 0)
(2.64147 0 0)
(2.65055 0 0)
(2.65963 0 0)
(2.66871 0 0)
(2.67779 0 0)
(2.68686 0 0)
(2.69592 0 0)
(2.70498 0 0)
(2.71404 0 0)
(2.72309 0 0)
(2.73213 0 0)
(2.74117 0 0)
(2.7502 0 0)
(2.75922 0 0)
(2.76823 0 0)
(2.77724 0 0)
(2.78623 0 0)
(2.79521 0 0)
(2.80418 0 0)
(2.81315 0 0)
(2.82209 0 0)
(2.83103 0 0)
(2.83995 0 0)
(2.84885 0 0)
(2.85774 0 0)
(2.86662 0 0)
(2.87547 0 0)
(2.88431 0 0)
(2.89313 0 0)
(2.90192 0 0)
(2.9107 0 0)
(2.91945 0 0)
(2.92818 0 0)
(2.93689 0 0)
(2.94556 0 0)
(2.95421 0 0)
(2.96284 0 0)
(2.97143 0 0)
(2.97999 0 0)
(2.98852 0 0)
(2.99701 0 0)
(3.00547 0 0)
(3.01389 0 0)
(3.02227 0 0)
(3.03061 0 0)
(3.0389 0 0)
(3.04716 0 0)
(3.05536 0 0)
(3.06352 0 0)
(3.07162 0 0)
(3.07967 0 0)
(3.08767 0 0)
(3.09561 0 0)
(3.10348 0 0)
(3.1113 0 0)
(3.11905 0 0)
(3.12673 0 0)
(3.13433 0 0)
(3.14187 0 0)
(3.14932 0 0)
(3.1567 0 0)
(3.16399 0 0)
(3.1712 0 0)
(3.17831 0 0)
(3.18532 0 0)
(3.19224 0 0)
(3.19906 0 0)
(3.20577 0 0)
(3.21236 0 0)
(3.21884 0 0)
(3.2252 0 0)
(3.23143 0 0)
(3.23753 0 0)
(3.2435 0 0)
(3.24932 0 0)
(3.255 0 0)
(3.26053 0 0)
(3.26589 0 0)
(3.27109 0 0)
(3.27612 0 0)
(3.28096 0 0)
(3.28563 0 0)
(3.2901 0 0)
(3.29437 0 0)
(3.29843 0 0)
(3.30227 0 0)
(3.30589 0 0)
(3.30928 0 0)
(3.31243 0 0)
(3.31533 0 0)
(3.31797 0 0)
(3.32034 0 0)
(3.32242 0 0)
(3.32423 0 0)
(3.32573 0 0)
(3.32692 0 0)
(3.32779 0 0)
(3.32833 0 0)
(3.32852 0 0)
(3.32836 0 0)
(3.32783 0 0)
(3.32692 0 0)
(3.32562 0 0)
(3.32391 0 0)
(3.32179 0 0)
(3.31923 0 0)
(3.31623 0 0)
(3.31277 0 0)
(3.30884 0 0)
(3.30442 0 0)
(3.2995 0 0)
(3.29406 0 0)
(3.2881 0 0)
(3.28159 0 0)
(3.27453 0 0)
(3.26689 0 0)
(3.25866 0 0)
(3.24984 0 0)
(3.2404 0 0)
(3.23033 0 0)
(3.21963 0 0)
(3.20826 0 0)
(3.19623 0 0)
(3.18352 0 0)
(3.17012 0 0)
(3.15602 0 0)
(3.1412 0 0)
(3.12566 0 0)
(3.10938 0 0)
(3.09237 0 0)
(3.0746 0 0)
(3.05609 0 0)
(3.03681 0 0)
(3.01677 0 0)
(2.99596 0 0)
(2.97439 0 0)
(2.95205 0 0)
(2.92894 0 0)
(2.90506 0 0)
(2.88043 0 0)
(2.85505 0 0)
(2.82892 0 0)
(2.80206 0 0)
(2.77447 0 0)
(2.74617 0 0)
(2.71718 0 0)
(2.68751 0 0)
(2.65718 0 0)
(2.62621 0 0)
(2.59463 0 0)
(2.56246 0 0)
(2.52972 0 0)
(2.49644 0 0)
(2.46266 0 0)
(2.42841 0 0)
(2.39371 0 0)
(2.3586 0 0)
(2.32311 0 0)
(2.2873 0 0)
(2.25118 0 0)
(2.2148 0 0)
(2.17821 0 0)
(2.14143 0 0)
(2.10451 0 0)
(2.0675 0 0)
(2.03043 0 0)
(1.99334 0 0)
(1.95627 0 0)
(1.91928 0 0)
(1.88239 0 0)
(1.84564 0 0)
(1.80908 0 0)
(1.77274 0 0)
(1.73666 0 0)
(1.70087 0 0)
(1.66542 0 0)
(1.63033 0 0)
(1.59563 0 0)
(1.56135 0 0)
(1.52753 0 0)
(1.49418 0 0)
(1.46134 0 0)
(1.42903 0 0)
(1.39726 0 0)
(1.36607 0 0)
(1.33545 0 0)
(1.30544 0 0)
(1.27604 0 0)
(1.24727 0 0)
(1.21913 0 0)
(1.19164 0 0)
(1.1648 0 0)
(1.13862 0 0)
(1.1131 0 0)
(1.08824 0 0)
(1.06404 0 0)
(1.04051 0 0)
(1.01764 0 0)
(0.995424 0 0)
(0.973862 0 0)
(0.952946 0 0)
(0.932672 0 0)
(0.913031 0 0)
(0.894015 0 0)
(0.875615 0 0)
(0.857822 0 0)
(0.840624 0 0)
(0.824012 0 0)
(0.807973 0 0)
(0.792496 0 0)
(0.777569 0 0)
(0.76318 0 0)
(0.749315 0 0)
(0.735961 0 0)
(0.723106 0 0)
(0.710736 0 0)
(0.698839 0 0)
(0.6874 0 0)
(0.676407 0 0)
(0.665847 0 0)
(0.655705 0 0)
(0.64597 0 0)
(0.636629 0 0)
(0.627668 0 0)
(0.619075 0 0)
(0.610838 0 0)
(0.602944 0 0)
(0.595383 0 0)
(0.588141 0 0)
(0.581208 0 0)
(0.574572 0 0)
(0.568222 0 0)
(0.562149 0 0)
(0.55634 0 0)
(0.550787 0 0)
(0.54548 0 0)
(0.540408 0 0)
(0.535563 0 0)
(0.530936 0 0)
(0.526517 0 0)
(0.522299 0 0)
(0.518274 0 0)
(0.514432 0 0)
(0.510768 0 0)
(0.507273 0 0)
(0.50394 0 0)
(0.500762 0 0)
(0.497734 0 0)
(0.494847 0 0)
(0.492097 0 0)
(0.489477 0 0)
(0.486982 0 0)
(0.484606 0 0)
(0.482343 0 0)
(0.48019 0 0)
(0.47814 0 0)
(0.47619 0 0)
(0.474334 0 0)
(0.472569 0 0)
(0.47089 0 0)
(0.469294 0 0)
(0.467776 0 0)
(0.466333 0 0)
(0.464962 0 0)
(0.463659 0 0)
(0.462421 0 0)
(0.461244 0 0)
(0.460127 0 0)
(0.459066 0 0)
(0.458058 0 0)
(0.457101 0 0)
(0.456193 0 0)
(0.455331 0 0)
(0.454513 0 0)
(0.453737 0 0)
(0.453 0 0)
(0.452302 0 0)
(0.451639 0 0)
(0.451011 0 0)
(0.450415 0 0)
(0.44985 0 0)
(0.449315 0 0)
(0.448808 0 0)
(0.448327 0 0)
(0.447871 0 0)
(0.447439 0 0)
(0.44703 0 0)
(0.446643 0 0)
(0.446276 0 0)
(0.445929 0 0)
(0.4456 0 0)
(0.445289 0 0)
(0.444994 0 0)
(0.444715 0 0)
(0.444452 0 0)
(0.444202 0 0)
(0.443966 0 0)
(0.443742 0 0)
(0.443531 0 0)
(0.443331 0 0)
(0.443143 0 0)
(0.442964 0 0)
(0.442795 0 0)
(0.442636 0 0)
(0.442485 0 0)
(0.442342 0 0)
(0.442208 0 0)
(0.442081 0 0)
(0.44196 0 0)
(0.441847 0 0)
(0.44174 0 0)
(0.441639 0 0)
(0.441543 0 0)
(0.441453 0 0)
(0.441368 0 0)
(0.441288 0 0)
(0.441212 0 0)
(0.441141 0 0)
(0.441073 0 0)
(0.44101 0 0)
(0.44095 0 0)
(0.440893 0 0)
(0.44084 0 0)
(0.440789 0 0)
(0.440742 0 0)
(0.440697 0 0)
(0.440655 0 0)
(0.440616 0 0)
(0.440578 0 0)
(0.440543 0 0)
(0.44051 0 0)
(0.440479 0 0)
(0.440449 0 0)
(0.440421 0 0)
(0.440395 0 0)
(0.440371 0 0)
(0.440348 0 0)
(0.440326 0 0)
(0.440305 0 0)
)
;

boundaryField
{
    topWall
    {
        type            empty;
    }
    bottomWall
    {
        type            empty;
    }
    leftAndRight_half1
    {
        type            cyclic;
    }
    leftAndRight_half0
    {
        type            cyclic;
    }
    frontAndBack
    {
        type            empty;
    }
}


// ************************************************************************* //
