/*--------------------------------*- C++ -*----------------------------------*\
  =========                 |
  \\      /  F ield         | OpenFOAM: The Open Source CFD Toolbox
   \\    /   O peration     | Website:  https://openfoam.org
    \\  /    A nd           | Version:  9
     \\/     M anipulation  |
\*---------------------------------------------------------------------------*/
FoamFile
{
    format      ascii;
    class       volScalarField;
    location    "0";
    object      p;
}
// * * * * * * * * * * * * * * * * * * * * * * * * * * * * * * * * * * * * * //

dimensions      [1 -1 -2 0 0 0 0];

internalField   nonuniform List<scalar> 
1000
(
100000
100000
100000
100000
100000
100000
100000
100000
100000
100000
100000
100000
100000
100000
100000
100000
100000
100000
100000
100000
100000
100000
100000
100000
100000
100000
100000
100000
100000
100000
100000
100000
100000
100000
100000
100000
100000
100000
100000
100000
100000
100000
100000
100000
100000
100000
100000
100000
100000
100000
100000
100000
100000
100000
100000
100000
100000
100000
100000
100000
100000
100000
100000
100000
100000
100000
100000
100000
100000
100000
100000
100000
100000
100000
100000
100000
100000
100000
100000
100000
100000
100000
100000
100000
100000
100000
100000
100000
100000
100000
100000
100000
100000
100000
100000
100000
100000
100000
100000
100000
100000
100000
100000
100000
100000
100000
100000
100000
100000
100000
100000
100000
100000
100000
100000
100000
100000
100000
100000
100000
100000
100000
100000
100000
100000
100000
100000
100000
100000
100000
100000
100000
100000
100000
100000
100000
100000
100000
100000
100000
100000
100000
100000
100000
100000
100000
100000
100000
100000
100000
100000
100000
100000
100000
100000
100000
100000
100000
100000
100000
100000
100000
100000
100000
100000
100000
100000
100000
100000
100000
100000
100000
100000
100000
100000
100000
100000
100000
100000
100000
100000
100000
100000
100000
100000
100000
100000
100000
100000
100000
100000
100000
100000
100000
100000
100000
100000
100000
100000
100000
100000
100000
100000
100000
100000
100000
100000
100000
100000
100000
100000
100000
100000
100000
100000
100000
100000
100000
100000
100000
100000
100000
100000
100000
100000
100000
100000
100000
100000
100000
100000
100000
100000
100000
100000
100000
100000
100000
100000
100000
100000
100000
100000
100000
100000
100000
100000
100000
100000
100000
100000
100000
100000
100000
100000
100000
100000
100000
100000
100000
100000
100000
100000
100000
100000
100000
100000
100000
100000
100000
100000
100000
100000
100000
100000
100000
100000
100000
100000
100000
100000
100000
100000
100000
100000
100000
100000
100000
100000
100000
100000
100000
100000
100000
100000
100000
100000
100000
100000
100000
100000
100000
100000
100000
100000
100000
100000
100000
100000
100000
100000
100000
100000
100000
100000
100000
100000
99999.9
99999.9
99999.9
99999.9
99999.9
99999.9
99999.9
99999.9
99999.8
99999.8
99999.8
99999.8
99999.7
99999.7
99999.7
99999.6
99999.6
99999.5
99999.4
99999.3
99999.3
99999.2
99999.1
99998.9
99998.8
99998.6
99998.5
99998.3
99998.1
99997.8
99997.6
99997.3
99996.9
99996.6
99996.2
99995.7
99995.2
99994.7
99994
99993.4
99992.6
99991.8
99990.9
99989.8
99988.7
99987.5
99986.2
99984.7
99983.1
99981.3
99979.4
99977.2
99974.9
99972.4
99969.6
99966.6
99963.3
99959.8
99955.9
99951.7
99947.1
99942.2
99936.8
99931
99924.8
99918
99910.8
99902.9
99894.5
99885.4
99875.7
99865.3
99854.1
99842.1
99829.3
99815.7
99801.1
99785.5
99768.9
99751.3
99732.6
99712.7
99691.6
99669.3
99645.6
99620.6
99594.2
99566.4
99537.1
99506.3
99473.9
99439.9
99404.2
99366.8
99327.8
99286.9
99244.3
99199.9
99153.7
99105.8
99055.9
99004.1
98950.5
98895.3
98838.1
98779.1
98718.4
98656
98591.9
98526.2
98459
98390.4
98320.2
98248.8
98176.3
98102.6
98027.9
97952.4
97876.3
97799.6
97722.5
97645.1
97567.8
97490.6
97413.8
97337.4
97261.9
97187.3
97113.8
97042
96971.7
96903.3
96837.1
96773.4
96712.2
96654
96599
96547.4
96499.6
96455.5
96415.7
96380.3
96349.6
96323.7
96302.9
96287.6
96277.6
96273.4
96275
96282.7
96296.6
96316.8
96343.5
96376.6
96416.5
96463
96516.1
96576.1
96642.7
96716.2
96796.3
96882.9
96976.1
97075.8
97181.6
97293.6
97411.7
97535.4
97664.6
97799.1
97938.7
98082.8
98232.1
98385.3
98541.2
98701.5
98865
99031
99199.2
99369.7
99541.4
99714.3
99888.3
100063
100237
100410
100583
100754
100923
101091
101256
101418
101575
101730
101882
102028
102170
102307
102439
102565
102686
102801
102909
103012
103107
103197
103279
103355
103424
103486
103542
103590
103632
103667
103695
103717
103732
103741
103744
103741
103732
103717
103697
103671
103641
103606
103566
103522
103474
103422
103367
103308
103247
103183
103116
103047
102976
102903
102829
102754
102678
102601
102523
102445
102367
102289
102212
102134
102058
101981
101906
101832
101759
101687
101616
101547
101479
101413
101349
101286
101225
101166
101108
101053
100999
100947
100897
100849
100802
100758
100715
100674
100635
100597
100561
100527
100495
100464
100434
100407
100380
100355
100331
100309
100288
100268
100249
100231
100215
100199
100185
100171
100158
100146
100135
100124
100115
100106
100097
100089
100082
100075
100069
100063
100058
100053
100048
100044
100040
100037
100033
100030
100028
100025
100023
100021
100019
100017
100015
100014
100013
100011
100010
100009
100008
100007
100007
100006
100005
100005
100004
100004
100003
100003
100003
100002
100002
100002
100002
100002
100001
100001
100001
100001
100001
100001
100001
100001
100001
100000
100000
100000
100000
100000
100000
100000
100000
100000
100000
100000
100000
100000
100000
100000
100000
100000
100000
100000
100000
100000
100000
100000
100000
100000
100000
100000
100000
100000
100000
100000
100000
100000
100000
100000
100000
100000
100000
100000
100000
100000
100000
100000
100000
100000
100000
100000
100000
100000
100000
100000
100000
100000
100000
100000
100000
100000
100000
100000
100000
100000
100000
100000
100000
100000
100000
100000
100000
100000
100000
100000
100000
100000
100000
100000
100000
100000
100000
100000
100000
100000
100000
100000
100000
100000
100000
100000
100000
100000
100000
100000
100000
100000
100000
100000
100000
100000
100000
100000
100000
100000
100000
100000
100000
100000
100000
100000
100000
100000
100000
100000
100000
100000
100000
100000
100000
100000
100000
100000
100000
100000
100000
100000
100000
100000
100000
100000
100000
100000
100000
100000
100000
100000
100000
100000
100000
100000
100000
100000
100000
100000
100000
100000
100000
100000
100000
100000
100000
100000
100000
100000
100000
100000
100000
100000
100000
100000
100000
100000
100000
100000
100000
100000
100000
100000
100000
100000
100000
100000
100000
100000
100000
100000
100000
100000
100000
100000
100000
100000
100000
100000
100000
100000
100000
100000
100000
100000
100000
100000
100000
100000
100000
100000
100000
100000
100000
100000
100000
100000
100000
100000
100000
100000
100000
100000
100000
100000
100000
100000
100000
100000
100000
100000
100000
100000
100000
100000
100000
100000
100000
100000
100000
100000
100000
100000
100000
100000
100000
100000
100000
100000
100000
100000
100000
100000
100000
100000
100000
100000
100000
100000
100000
100000
100000
100000
100000
100000
100000
100000
100000
100000
100000
100000
100000
100000
100000
100000
100000
100000
100000
100000
100000
100000
100000
100000
100000
100000
100000
100000
100000
100000
100000
100000
100000
100000
100000
100000
100000
100000
100000
100000
100000
100000
100000
100000
100000
100000
100000
100000
100000
100000
100000
100000
100000
100000
100000
100000
100000
100000
100000
100000
100000
100000
100000
100000
100000
100000
100000
100000
100000
100000
100000
100000
100000
100000
100000
100000
100000
100000
100000
100000
100000
100000
100000
100000
100000
100000
100000
100000
100000
100000
100000
100000
100000
)
;

boundaryField
{
    topWall
    {
        type            empty;
    }
    bottomWall
    {
        type            empty;
    }
    leftAndRight_half1
    {
        type            cyclic;
    }
    leftAndRight_half0
    {
        type            cyclic;
    }
    frontAndBack
    {
        type            empty;
    }
}


// ************************************************************************* //
