/*--------------------------------*- C++ -*----------------------------------*\
  =========                 |
  \\      /  F ield         | OpenFOAM: The Open Source CFD Toolbox
   \\    /   O peration     | Website:  https://openfoam.org
    \\  /    A nd           | Version:  9
     \\/     M anipulation  |
\*---------------------------------------------------------------------------*/
FoamFile
{
    format      ascii;
    class       volVectorField;
    location    "4.95";
    object      U;
}
// * * * * * * * * * * * * * * * * * * * * * * * * * * * * * * * * * * * * * //

dimensions      [0 1 -1 0 0 0 0];

internalField   nonuniform List<vector> 
1000
(
(0.13177 0 0)
(0.131696 0 0)
(0.131771 0 0)
(0.131695 0 0)
(0.131771 0 0)
(0.131695 0 0)
(0.131772 0 0)
(0.131694 0 0)
(0.131772 0 0)
(0.131694 0 0)
(0.131773 0 0)
(0.131694 0 0)
(0.131774 0 0)
(0.131694 0 0)
(0.131774 0 0)
(0.131694 0 0)
(0.131775 0 0)
(0.131694 0 0)
(0.131775 0 0)
(0.131695 0 0)
(0.131776 0 0)
(0.131696 0 0)
(0.131777 0 0)
(0.131696 0 0)
(0.131778 0 0)
(0.131697 0 0)
(0.131779 0 0)
(0.131699 0 0)
(0.13178 0 0)
(0.1317 0 0)
(0.131781 0 0)
(0.131702 0 0)
(0.131783 0 0)
(0.131704 0 0)
(0.131785 0 0)
(0.131706 0 0)
(0.131786 0 0)
(0.131709 0 0)
(0.131788 0 0)
(0.131712 0 0)
(0.131791 0 0)
(0.131715 0 0)
(0.131793 0 0)
(0.131719 0 0)
(0.131796 0 0)
(0.131723 0 0)
(0.131799 0 0)
(0.131727 0 0)
(0.131803 0 0)
(0.131732 0 0)
(0.131807 0 0)
(0.131738 0 0)
(0.131811 0 0)
(0.131744 0 0)
(0.131816 0 0)
(0.131751 0 0)
(0.131822 0 0)
(0.131758 0 0)
(0.131828 0 0)
(0.131766 0 0)
(0.131834 0 0)
(0.131774 0 0)
(0.131841 0 0)
(0.131783 0 0)
(0.131849 0 0)
(0.131793 0 0)
(0.131857 0 0)
(0.131804 0 0)
(0.131867 0 0)
(0.131816 0 0)
(0.131877 0 0)
(0.131828 0 0)
(0.131888 0 0)
(0.131842 0 0)
(0.1319 0 0)
(0.131856 0 0)
(0.131912 0 0)
(0.131871 0 0)
(0.131926 0 0)
(0.131887 0 0)
(0.131941 0 0)
(0.131904 0 0)
(0.131958 0 0)
(0.131922 0 0)
(0.131977 0 0)
(0.131938 0 0)
(0.132001 0 0)
(0.131949 0 0)
(0.132037 0 0)
(0.131948 0 0)
(0.132092 0 0)
(0.131932 0 0)
(0.13217 0 0)
(0.131908 0 0)
(0.132257 0 0)
(0.131916 0 0)
(0.132319 0 0)
(0.132005 0 0)
(0.132347 0 0)
(0.132169 0 0)
(0.132399 0 0)
(0.132335 0 0)
(0.132498 0 0)
(0.132473 0 0)
(0.13261 0 0)
(0.132583 0 0)
(0.132704 0 0)
(0.132667 0 0)
(0.132772 0 0)
(0.132727 0 0)
(0.132817 0 0)
(0.132767 0 0)
(0.132847 0 0)
(0.132796 0 0)
(0.132868 0 0)
(0.132818 0 0)
(0.132885 0 0)
(0.132838 0 0)
(0.132901 0 0)
(0.132857 0 0)
(0.132917 0 0)
(0.132877 0 0)
(0.132934 0 0)
(0.132897 0 0)
(0.132951 0 0)
(0.132917 0 0)
(0.132969 0 0)
(0.132939 0 0)
(0.132987 0 0)
(0.13296 0 0)
(0.133007 0 0)
(0.132982 0 0)
(0.133026 0 0)
(0.133005 0 0)
(0.133047 0 0)
(0.133028 0 0)
(0.133068 0 0)
(0.133052 0 0)
(0.13309 0 0)
(0.133076 0 0)
(0.133112 0 0)
(0.133101 0 0)
(0.133135 0 0)
(0.133125 0 0)
(0.133158 0 0)
(0.133151 0 0)
(0.133182 0 0)
(0.133176 0 0)
(0.133206 0 0)
(0.133201 0 0)
(0.13323 0 0)
(0.133227 0 0)
(0.133254 0 0)
(0.133253 0 0)
(0.133279 0 0)
(0.133278 0 0)
(0.133303 0 0)
(0.133304 0 0)
(0.133327 0 0)
(0.133329 0 0)
(0.133352 0 0)
(0.133355 0 0)
(0.133376 0 0)
(0.13338 0 0)
(0.1334 0 0)
(0.133404 0 0)
(0.133423 0 0)
(0.133428 0 0)
(0.133447 0 0)
(0.133452 0 0)
(0.133469 0 0)
(0.133475 0 0)
(0.133491 0 0)
(0.133497 0 0)
(0.133513 0 0)
(0.133519 0 0)
(0.133533 0 0)
(0.13354 0 0)
(0.133553 0 0)
(0.133559 0 0)
(0.133572 0 0)
(0.133578 0 0)
(0.133589 0 0)
(0.133596 0 0)
(0.133606 0 0)
(0.133613 0 0)
(0.13362 0 0)
(0.133629 0 0)
(0.133633 0 0)
(0.133644 0 0)
(0.133644 0 0)
(0.133657 0 0)
(0.133655 0 0)
(0.133668 0 0)
(0.133666 0 0)
(0.133676 0 0)
(0.133677 0 0)
(0.133685 0 0)
(0.133689 0 0)
(0.133699 0 0)
(0.133707 0 0)
(0.133719 0 0)
(0.133724 0 0)
(0.133722 0 0)
(0.133694 0 0)
(0.133643 0 0)
(0.133565 0 0)
(0.133478 0 0)
(0.133388 0 0)
(0.133314 0 0)
(0.133254 0 0)
(0.133215 0 0)
(0.133188 0 0)
(0.133175 0 0)
(0.133167 0 0)
(0.133167 0 0)
(0.133167 0 0)
(0.133171 0 0)
(0.133173 0 0)
(0.133178 0 0)
(0.13318 0 0)
(0.133185 0 0)
(0.133187 0 0)
(0.133191 0 0)
(0.133192 0 0)
(0.133195 0 0)
(0.133196 0 0)
(0.133198 0 0)
(0.133198 0 0)
(0.1332 0 0)
(0.133199 0 0)
(0.1332 0 0)
(0.133198 0 0)
(0.133198 0 0)
(0.133196 0 0)
(0.133196 0 0)
(0.133193 0 0)
(0.133191 0 0)
(0.133188 0 0)
(0.133185 0 0)
(0.133181 0 0)
(0.133178 0 0)
(0.133173 0 0)
(0.13317 0 0)
(0.133164 0 0)
(0.13316 0 0)
(0.133153 0 0)
(0.133148 0 0)
(0.133142 0 0)
(0.133136 0 0)
(0.133128 0 0)
(0.133122 0 0)
(0.133114 0 0)
(0.133107 0 0)
(0.133099 0 0)
(0.133091 0 0)
(0.133082 0 0)
(0.133074 0 0)
(0.133064 0 0)
(0.133055 0 0)
(0.133045 0 0)
(0.133036 0 0)
(0.133025 0 0)
(0.133016 0 0)
(0.133005 0 0)
(0.132994 0 0)
(0.132983 0 0)
(0.132972 0 0)
(0.132961 0 0)
(0.13295 0 0)
(0.132938 0 0)
(0.132926 0 0)
(0.132914 0 0)
(0.132902 0 0)
(0.132889 0 0)
(0.132877 0 0)
(0.132864 0 0)
(0.132852 0 0)
(0.132838 0 0)
(0.132826 0 0)
(0.132812 0 0)
(0.132799 0 0)
(0.132786 0 0)
(0.132773 0 0)
(0.132759 0 0)
(0.132746 0 0)
(0.132732 0 0)
(0.132719 0 0)
(0.132705 0 0)
(0.132691 0 0)
(0.132677 0 0)
(0.132664 0 0)
(0.13265 0 0)
(0.132636 0 0)
(0.132622 0 0)
(0.132608 0 0)
(0.132595 0 0)
(0.132581 0 0)
(0.132567 0 0)
(0.132553 0 0)
(0.13254 0 0)
(0.132526 0 0)
(0.132512 0 0)
(0.132499 0 0)
(0.132485 0 0)
(0.132472 0 0)
(0.132458 0 0)
(0.132445 0 0)
(0.132432 0 0)
(0.132419 0 0)
(0.132406 0 0)
(0.132393 0 0)
(0.13238 0 0)
(0.132367 0 0)
(0.132354 0 0)
(0.132342 0 0)
(0.132329 0 0)
(0.132317 0 0)
(0.132305 0 0)
(0.132293 0 0)
(0.132281 0 0)
(0.132269 0 0)
(0.132257 0 0)
(0.132245 0 0)
(0.132234 0 0)
(0.132223 0 0)
(0.132212 0 0)
(0.132201 0 0)
(0.13219 0 0)
(0.132179 0 0)
(0.132168 0 0)
(0.132158 0 0)
(0.132148 0 0)
(0.132137 0 0)
(0.132127 0 0)
(0.132118 0 0)
(0.132108 0 0)
(0.132099 0 0)
(0.132089 0 0)
(0.13208 0 0)
(0.132071 0 0)
(0.132062 0 0)
(0.132053 0 0)
(0.132045 0 0)
(0.132036 0 0)
(0.132028 0 0)
(0.13202 0 0)
(0.132012 0 0)
(0.132004 0 0)
(0.131997 0 0)
(0.131989 0 0)
(0.131982 0 0)
(0.131975 0 0)
(0.131968 0 0)
(0.131961 0 0)
(0.131954 0 0)
(0.131948 0 0)
(0.131941 0 0)
(0.131935 0 0)
(0.131929 0 0)
(0.131923 0 0)
(0.131917 0 0)
(0.131911 0 0)
(0.131906 0 0)
(0.1319 0 0)
(0.131895 0 0)
(0.13189 0 0)
(0.131885 0 0)
(0.13188 0 0)
(0.131875 0 0)
(0.131871 0 0)
(0.131866 0 0)
(0.131862 0 0)
(0.131858 0 0)
(0.131853 0 0)
(0.131849 0 0)
(0.131845 0 0)
(0.131842 0 0)
(0.131838 0 0)
(0.131834 0 0)
(0.131831 0 0)
(0.131827 0 0)
(0.131824 0 0)
(0.131821 0 0)
(0.131818 0 0)
(0.131815 0 0)
(0.131812 0 0)
(0.131809 0 0)
(0.131806 0 0)
(0.131804 0 0)
(0.131801 0 0)
(0.131799 0 0)
(0.131796 0 0)
(0.131794 0 0)
(0.131792 0 0)
(0.13179 0 0)
(0.131788 0 0)
(0.131786 0 0)
(0.131784 0 0)
(0.131782 0 0)
(0.13178 0 0)
(0.131778 0 0)
(0.131777 0 0)
(0.131775 0 0)
(0.131773 0 0)
(0.131772 0 0)
(0.13177 0 0)
(0.131769 0 0)
(0.131768 0 0)
(0.131766 0 0)
(0.131765 0 0)
(0.131764 0 0)
(0.131763 0 0)
(0.131762 0 0)
(0.131761 0 0)
(0.13176 0 0)
(0.131759 0 0)
(0.131758 0 0)
(0.131757 0 0)
(0.131756 0 0)
(0.131755 0 0)
(0.131754 0 0)
(0.131754 0 0)
(0.131753 0 0)
(0.131752 0 0)
(0.131751 0 0)
(0.131751 0 0)
(0.13175 0 0)
(0.13175 0 0)
(0.131749 0 0)
(0.131749 0 0)
(0.131748 0 0)
(0.131748 0 0)
(0.131747 0 0)
(0.131747 0 0)
(0.131746 0 0)
(0.131746 0 0)
(0.131745 0 0)
(0.131745 0 0)
(0.131745 0 0)
(0.131744 0 0)
(0.131744 0 0)
(0.131744 0 0)
(0.131743 0 0)
(0.131743 0 0)
(0.131743 0 0)
(0.131743 0 0)
(0.131742 0 0)
(0.131742 0 0)
(0.131742 0 0)
(0.131742 0 0)
(0.131741 0 0)
(0.131741 0 0)
(0.131741 0 0)
(0.131741 0 0)
(0.131741 0 0)
(0.131741 0 0)
(0.13174 0 0)
(0.13174 0 0)
(0.13174 0 0)
(0.13174 0 0)
(0.13174 0 0)
(0.13174 0 0)
(0.13174 0 0)
(0.13174 0 0)
(0.13174 0 0)
(0.131739 0 0)
(0.131739 0 0)
(0.131739 0 0)
(0.131739 0 0)
(0.131739 0 0)
(0.131739 0 0)
(0.131739 0 0)
(0.131739 0 0)
(0.131739 0 0)
(0.131739 0 0)
(0.131739 0 0)
(0.131739 0 0)
(0.131739 0 0)
(0.131739 0 0)
(0.131739 0 0)
(0.131739 0 0)
(0.131739 0 0)
(0.131739 0 0)
(0.131738 0 0)
(0.131738 0 0)
(0.131738 0 0)
(0.131738 0 0)
(0.131738 0 0)
(0.131738 0 0)
(0.131738 0 0)
(0.131738 0 0)
(0.131738 0 0)
(0.131738 0 0)
(0.131738 0 0)
(0.131738 0 0)
(0.131738 0 0)
(0.131738 0 0)
(0.131738 0 0)
(0.131738 0 0)
(0.131738 0 0)
(0.131738 0 0)
(0.131738 0 0)
(0.131738 0 0)
(0.131738 0 0)
(0.131738 0 0)
(0.131738 0 0)
(0.131738 0 0)
(0.131738 0 0)
(0.131738 0 0)
(0.131738 0 0)
(0.131738 0 0)
(0.131738 0 0)
(0.131738 0 0)
(0.131738 0 0)
(0.131738 0 0)
(0.131738 0 0)
(0.131738 0 0)
(0.131738 0 0)
(0.131738 0 0)
(0.131738 0 0)
(0.131738 0 0)
(0.131738 0 0)
(0.131738 0 0)
(0.131738 0 0)
(0.131738 0 0)
(0.131738 0 0)
(0.131738 0 0)
(0.131738 0 0)
(0.131738 0 0)
(0.131738 0 0)
(0.131738 0 0)
(0.131738 0 0)
(0.131738 0 0)
(0.131738 0 0)
(0.131738 0 0)
(0.131738 0 0)
(0.131738 0 0)
(0.131738 0 0)
(0.131738 0 0)
(0.131738 0 0)
(0.131738 0 0)
(0.131738 0 0)
(0.131738 0 0)
(0.131738 0 0)
(0.131738 0 0)
(0.131738 0 0)
(0.131738 0 0)
(0.131738 0 0)
(0.131738 0 0)
(0.131738 0 0)
(0.131738 0 0)
(0.131738 0 0)
(0.131738 0 0)
(0.131738 0 0)
(0.131738 0 0)
(0.131738 0 0)
(0.131738 0 0)
(0.131738 0 0)
(0.131738 0 0)
(0.131738 0 0)
(0.131738 0 0)
(0.131738 0 0)
(0.131738 0 0)
(0.131738 0 0)
(0.131738 0 0)
(0.131738 0 0)
(0.131738 0 0)
(0.131738 0 0)
(0.131738 0 0)
(0.131738 0 0)
(0.131738 0 0)
(0.131738 0 0)
(0.131738 0 0)
(0.131738 0 0)
(0.131738 0 0)
(0.131738 0 0)
(0.131738 0 0)
(0.131738 0 0)
(0.131738 0 0)
(0.131738 0 0)
(0.131738 0 0)
(0.131738 0 0)
(0.131738 0 0)
(0.131738 0 0)
(0.131738 0 0)
(0.131738 0 0)
(0.131738 0 0)
(0.131738 0 0)
(0.131738 0 0)
(0.131738 0 0)
(0.131738 0 0)
(0.131738 0 0)
(0.131738 0 0)
(0.131738 0 0)
(0.131738 0 0)
(0.131738 0 0)
(0.131738 0 0)
(0.131738 0 0)
(0.131738 0 0)
(0.131738 0 0)
(0.131738 0 0)
(0.131738 0 0)
(0.131738 0 0)
(0.131738 0 0)
(0.131738 0 0)
(0.131738 0 0)
(0.131738 0 0)
(0.131738 0 0)
(0.131738 0 0)
(0.131738 0 0)
(0.131738 0 0)
(0.131738 0 0)
(0.131738 0 0)
(0.131738 0 0)
(0.131738 0 0)
(0.131738 0 0)
(0.131738 0 0)
(0.131738 0 0)
(0.131738 0 0)
(0.131738 0 0)
(0.131738 0 0)
(0.131738 0 0)
(0.131738 0 0)
(0.131738 0 0)
(0.131738 0 0)
(0.131738 0 0)
(0.131738 0 0)
(0.131738 0 0)
(0.131738 0 0)
(0.131738 0 0)
(0.131738 0 0)
(0.131738 0 0)
(0.131738 0 0)
(0.131738 0 0)
(0.131738 0 0)
(0.131738 0 0)
(0.131738 0 0)
(0.131738 0 0)
(0.131738 0 0)
(0.131738 0 0)
(0.131738 0 0)
(0.131738 0 0)
(0.131738 0 0)
(0.131738 0 0)
(0.131738 0 0)
(0.131738 0 0)
(0.131738 0 0)
(0.131738 0 0)
(0.131738 0 0)
(0.131738 0 0)
(0.131738 0 0)
(0.131738 0 0)
(0.131738 0 0)
(0.131738 0 0)
(0.131738 0 0)
(0.131738 0 0)
(0.131738 0 0)
(0.131738 0 0)
(0.131738 0 0)
(0.131738 0 0)
(0.131738 0 0)
(0.131738 0 0)
(0.131738 0 0)
(0.131738 0 0)
(0.131738 0 0)
(0.131738 0 0)
(0.131738 0 0)
(0.131738 0 0)
(0.131738 0 0)
(0.131738 0 0)
(0.131738 0 0)
(0.131738 0 0)
(0.131738 0 0)
(0.131738 0 0)
(0.131738 0 0)
(0.131738 0 0)
(0.131738 0 0)
(0.131738 0 0)
(0.131738 0 0)
(0.131738 0 0)
(0.131738 0 0)
(0.131738 0 0)
(0.131738 0 0)
(0.131738 0 0)
(0.131738 0 0)
(0.131738 0 0)
(0.131738 0 0)
(0.131738 0 0)
(0.131738 0 0)
(0.131738 0 0)
(0.131738 0 0)
(0.131738 0 0)
(0.131738 0 0)
(0.131738 0 0)
(0.131738 0 0)
(0.131738 0 0)
(0.131738 0 0)
(0.131738 0 0)
(0.131738 0 0)
(0.131738 0 0)
(0.131738 0 0)
(0.131738 0 0)
(0.131738 0 0)
(0.131738 0 0)
(0.131738 0 0)
(0.131738 0 0)
(0.131738 0 0)
(0.131738 0 0)
(0.131738 0 0)
(0.131738 0 0)
(0.131738 0 0)
(0.131738 0 0)
(0.131738 0 0)
(0.131738 0 0)
(0.131738 0 0)
(0.131738 0 0)
(0.131738 0 0)
(0.131738 0 0)
(0.131738 0 0)
(0.131738 0 0)
(0.131738 0 0)
(0.131738 0 0)
(0.131738 0 0)
(0.131738 0 0)
(0.131738 0 0)
(0.131738 0 0)
(0.131738 0 0)
(0.131738 0 0)
(0.131738 0 0)
(0.131738 0 0)
(0.131738 0 0)
(0.131738 0 0)
(0.131738 0 0)
(0.131738 0 0)
(0.131738 0 0)
(0.131738 0 0)
(0.131738 0 0)
(0.131738 0 0)
(0.131738 0 0)
(0.131738 0 0)
(0.131738 0 0)
(0.131738 0 0)
(0.131738 0 0)
(0.131738 0 0)
(0.131738 0 0)
(0.131738 0 0)
(0.131738 0 0)
(0.131738 0 0)
(0.131738 0 0)
(0.131738 0 0)
(0.131738 0 0)
(0.131738 0 0)
(0.131738 0 0)
(0.131738 0 0)
(0.131738 0 0)
(0.131738 0 0)
(0.131738 0 0)
(0.131738 0 0)
(0.131738 0 0)
(0.131738 0 0)
(0.131738 0 0)
(0.131738 0 0)
(0.131738 0 0)
(0.131738 0 0)
(0.131738 0 0)
(0.131738 0 0)
(0.131738 0 0)
(0.131738 0 0)
(0.131738 0 0)
(0.131738 0 0)
(0.131738 0 0)
(0.131738 0 0)
(0.131738 0 0)
(0.131738 0 0)
(0.131738 0 0)
(0.131738 0 0)
(0.131738 0 0)
(0.131738 0 0)
(0.131738 0 0)
(0.131738 0 0)
(0.131738 0 0)
(0.131738 0 0)
(0.131738 0 0)
(0.131738 0 0)
(0.131738 0 0)
(0.131738 0 0)
(0.131738 0 0)
(0.131738 0 0)
(0.131738 0 0)
(0.131738 0 0)
(0.131738 0 0)
(0.131738 0 0)
(0.131738 0 0)
(0.131738 0 0)
(0.131738 0 0)
(0.131738 0 0)
(0.131738 0 0)
(0.131738 0 0)
(0.131738 0 0)
(0.131738 0 0)
(0.131738 0 0)
(0.131738 0 0)
(0.131738 0 0)
(0.131738 0 0)
(0.131738 0 0)
(0.131738 0 0)
(0.131738 0 0)
(0.131738 0 0)
(0.131738 0 0)
(0.131738 0 0)
(0.131738 0 0)
(0.131738 0 0)
(0.131738 0 0)
(0.131738 0 0)
(0.131738 0 0)
(0.131738 0 0)
(0.131738 0 0)
(0.131738 0 0)
(0.131738 0 0)
(0.131738 0 0)
(0.131738 0 0)
(0.131738 0 0)
(0.131738 0 0)
(0.131738 0 0)
(0.131738 0 0)
(0.131738 0 0)
(0.131738 0 0)
(0.131738 0 0)
(0.131738 0 0)
(0.131738 0 0)
(0.131738 0 0)
(0.131738 0 0)
(0.131738 0 0)
(0.131738 0 0)
(0.131738 0 0)
(0.131738 0 0)
(0.131738 0 0)
(0.131738 0 0)
(0.131738 0 0)
(0.131738 0 0)
(0.131738 0 0)
(0.131738 0 0)
(0.131738 0 0)
(0.131738 0 0)
(0.131738 0 0)
(0.131738 0 0)
(0.131738 0 0)
(0.131738 0 0)
(0.131738 0 0)
(0.131738 0 0)
(0.131738 0 0)
(0.131738 0 0)
(0.131737 0 0)
(0.131739 0 0)
(0.131737 0 0)
(0.131739 0 0)
(0.131737 0 0)
(0.131739 0 0)
(0.131737 0 0)
(0.131739 0 0)
(0.131737 0 0)
(0.131739 0 0)
(0.131737 0 0)
(0.131739 0 0)
(0.131737 0 0)
(0.131739 0 0)
(0.131737 0 0)
(0.131739 0 0)
(0.131737 0 0)
(0.131739 0 0)
(0.131737 0 0)
(0.131739 0 0)
(0.131737 0 0)
(0.131739 0 0)
(0.131737 0 0)
(0.131739 0 0)
(0.131736 0 0)
(0.13174 0 0)
(0.131736 0 0)
(0.13174 0 0)
(0.131736 0 0)
(0.13174 0 0)
(0.131736 0 0)
(0.13174 0 0)
(0.131736 0 0)
(0.13174 0 0)
(0.131736 0 0)
(0.13174 0 0)
(0.131735 0 0)
(0.131741 0 0)
(0.131735 0 0)
(0.131741 0 0)
(0.131735 0 0)
(0.131741 0 0)
(0.131735 0 0)
(0.131741 0 0)
(0.131734 0 0)
(0.131742 0 0)
(0.131734 0 0)
(0.131742 0 0)
(0.131734 0 0)
(0.131742 0 0)
(0.131734 0 0)
(0.131742 0 0)
(0.131733 0 0)
(0.131743 0 0)
(0.131733 0 0)
(0.131743 0 0)
(0.131732 0 0)
(0.131743 0 0)
(0.131732 0 0)
(0.131744 0 0)
(0.131732 0 0)
(0.131744 0 0)
(0.131731 0 0)
(0.131745 0 0)
(0.131731 0 0)
(0.131745 0 0)
(0.13173 0 0)
(0.131745 0 0)
(0.13173 0 0)
(0.131746 0 0)
(0.131729 0 0)
(0.131746 0 0)
(0.131729 0 0)
(0.131747 0 0)
(0.131728 0 0)
(0.131747 0 0)
(0.131727 0 0)
(0.131748 0 0)
(0.131727 0 0)
(0.131749 0 0)
(0.131726 0 0)
(0.131749 0 0)
(0.131725 0 0)
(0.13175 0 0)
(0.131725 0 0)
(0.13175 0 0)
(0.131724 0 0)
(0.131751 0 0)
(0.131723 0 0)
(0.131752 0 0)
(0.131722 0 0)
(0.131752 0 0)
(0.131722 0 0)
(0.131753 0 0)
(0.131721 0 0)
(0.131754 0 0)
(0.13172 0 0)
(0.131754 0 0)
(0.131719 0 0)
(0.131755 0 0)
(0.131718 0 0)
(0.131756 0 0)
(0.131717 0 0)
(0.131756 0 0)
(0.131716 0 0)
(0.131757 0 0)
(0.131715 0 0)
(0.131758 0 0)
(0.131714 0 0)
(0.131758 0 0)
(0.131713 0 0)
(0.131759 0 0)
(0.131712 0 0)
(0.13176 0 0)
(0.131711 0 0)
(0.131761 0 0)
(0.13171 0 0)
(0.131761 0 0)
(0.131709 0 0)
(0.131762 0 0)
(0.131708 0 0)
(0.131763 0 0)
(0.131707 0 0)
(0.131763 0 0)
(0.131706 0 0)
(0.131764 0 0)
(0.131705 0 0)
(0.131765 0 0)
(0.131704 0 0)
(0.131765 0 0)
(0.131703 0 0)
(0.131766 0 0)
(0.131702 0 0)
(0.131766 0 0)
(0.131701 0 0)
(0.131767 0 0)
(0.1317 0 0)
(0.131768 0 0)
(0.131699 0 0)
(0.131768 0 0)
(0.131699 0 0)
(0.131769 0 0)
(0.131698 0 0)
(0.131769 0 0)
(0.131697 0 0)
(0.13177 0 0)
(0.131696 0 0)
)
;

boundaryField
{
    topWall
    {
        type            empty;
    }
    bottomWall
    {
        type            empty;
    }
    leftAndRight_half1
    {
        type            cyclic;
    }
    leftAndRight_half0
    {
        type            cyclic;
    }
    frontAndBack
    {
        type            empty;
    }
}


// ************************************************************************* //
