/*--------------------------------*- C++ -*----------------------------------*\
  =========                 |
  \\      /  F ield         | OpenFOAM: The Open Source CFD Toolbox
   \\    /   O peration     | Website:  https://openfoam.org
    \\  /    A nd           | Version:  9
     \\/     M anipulation  |
\*---------------------------------------------------------------------------*/
FoamFile
{
    format      ascii;
    class       volVectorField;
    location    "1.95";
    object      U;
}
// * * * * * * * * * * * * * * * * * * * * * * * * * * * * * * * * * * * * * //

dimensions      [0 1 -1 0 0 0 0];

internalField   nonuniform List<vector> 
1000
(
(0.131754 0 0)
(0.131712 0 0)
(0.131755 0 0)
(0.13171 0 0)
(0.131757 0 0)
(0.131707 0 0)
(0.131758 0 0)
(0.131704 0 0)
(0.131759 0 0)
(0.131701 0 0)
(0.13176 0 0)
(0.131697 0 0)
(0.131761 0 0)
(0.131694 0 0)
(0.131762 0 0)
(0.13169 0 0)
(0.131763 0 0)
(0.131686 0 0)
(0.131764 0 0)
(0.131682 0 0)
(0.131765 0 0)
(0.131677 0 0)
(0.131765 0 0)
(0.131673 0 0)
(0.131766 0 0)
(0.131668 0 0)
(0.131766 0 0)
(0.131663 0 0)
(0.131766 0 0)
(0.131658 0 0)
(0.131766 0 0)
(0.131653 0 0)
(0.131765 0 0)
(0.131648 0 0)
(0.131764 0 0)
(0.131642 0 0)
(0.131763 0 0)
(0.131637 0 0)
(0.131762 0 0)
(0.131632 0 0)
(0.131761 0 0)
(0.131626 0 0)
(0.131759 0 0)
(0.131621 0 0)
(0.131757 0 0)
(0.131616 0 0)
(0.131755 0 0)
(0.131612 0 0)
(0.131753 0 0)
(0.131607 0 0)
(0.13175 0 0)
(0.131603 0 0)
(0.131748 0 0)
(0.131599 0 0)
(0.131745 0 0)
(0.131596 0 0)
(0.131742 0 0)
(0.131594 0 0)
(0.13174 0 0)
(0.131592 0 0)
(0.131738 0 0)
(0.131591 0 0)
(0.131736 0 0)
(0.131591 0 0)
(0.131735 0 0)
(0.131592 0 0)
(0.131734 0 0)
(0.131594 0 0)
(0.131734 0 0)
(0.131598 0 0)
(0.131735 0 0)
(0.131603 0 0)
(0.131737 0 0)
(0.131609 0 0)
(0.13174 0 0)
(0.131617 0 0)
(0.131744 0 0)
(0.131627 0 0)
(0.13175 0 0)
(0.131639 0 0)
(0.131758 0 0)
(0.131653 0 0)
(0.131769 0 0)
(0.131669 0 0)
(0.131783 0 0)
(0.131684 0 0)
(0.131803 0 0)
(0.131696 0 0)
(0.131836 0 0)
(0.131697 0 0)
(0.13189 0 0)
(0.131684 0 0)
(0.131968 0 0)
(0.131666 0 0)
(0.132057 0 0)
(0.131681 0 0)
(0.132122 0 0)
(0.131779 0 0)
(0.132156 0 0)
(0.131954 0 0)
(0.132215 0 0)
(0.132133 0 0)
(0.132323 0 0)
(0.132285 0 0)
(0.132447 0 0)
(0.132412 0 0)
(0.132554 0 0)
(0.132514 0 0)
(0.132637 0 0)
(0.132594 0 0)
(0.1327 0 0)
(0.132657 0 0)
(0.132749 0 0)
(0.132709 0 0)
(0.132792 0 0)
(0.132758 0 0)
(0.132833 0 0)
(0.132805 0 0)
(0.132875 0 0)
(0.132853 0 0)
(0.132918 0 0)
(0.132904 0 0)
(0.132964 0 0)
(0.132956 0 0)
(0.133012 0 0)
(0.13301 0 0)
(0.133062 0 0)
(0.133066 0 0)
(0.133115 0 0)
(0.133123 0 0)
(0.133169 0 0)
(0.133182 0 0)
(0.133225 0 0)
(0.133242 0 0)
(0.133283 0 0)
(0.133303 0 0)
(0.133341 0 0)
(0.133365 0 0)
(0.133401 0 0)
(0.133428 0 0)
(0.133462 0 0)
(0.13349 0 0)
(0.133523 0 0)
(0.133553 0 0)
(0.133584 0 0)
(0.133616 0 0)
(0.133645 0 0)
(0.133679 0 0)
(0.133707 0 0)
(0.133741 0 0)
(0.133767 0 0)
(0.133802 0 0)
(0.133827 0 0)
(0.133863 0 0)
(0.133886 0 0)
(0.133922 0 0)
(0.133944 0 0)
(0.133979 0 0)
(0.134001 0 0)
(0.134035 0 0)
(0.134055 0 0)
(0.134089 0 0)
(0.134108 0 0)
(0.134141 0 0)
(0.134159 0 0)
(0.134191 0 0)
(0.134208 0 0)
(0.134238 0 0)
(0.134254 0 0)
(0.134283 0 0)
(0.134297 0 0)
(0.134324 0 0)
(0.134338 0 0)
(0.134363 0 0)
(0.134375 0 0)
(0.134399 0 0)
(0.13441 0 0)
(0.134431 0 0)
(0.134441 0 0)
(0.13446 0 0)
(0.134468 0 0)
(0.134486 0 0)
(0.134492 0 0)
(0.134508 0 0)
(0.134512 0 0)
(0.134526 0 0)
(0.134527 0 0)
(0.134541 0 0)
(0.134538 0 0)
(0.134553 0 0)
(0.134545 0 0)
(0.134559 0 0)
(0.134548 0 0)
(0.134561 0 0)
(0.134549 0 0)
(0.134557 0 0)
(0.134548 0 0)
(0.134552 0 0)
(0.134545 0 0)
(0.134549 0 0)
(0.134545 0 0)
(0.13455 0 0)
(0.134542 0 0)
(0.13453 0 0)
(0.134488 0 0)
(0.134427 0 0)
(0.134334 0 0)
(0.134235 0 0)
(0.134129 0 0)
(0.134041 0 0)
(0.133964 0 0)
(0.13391 0 0)
(0.133865 0 0)
(0.133836 0 0)
(0.13381 0 0)
(0.133792 0 0)
(0.133772 0 0)
(0.133757 0 0)
(0.133739 0 0)
(0.133724 0 0)
(0.133706 0 0)
(0.13369 0 0)
(0.13367 0 0)
(0.133652 0 0)
(0.133631 0 0)
(0.133612 0 0)
(0.13359 0 0)
(0.133569 0 0)
(0.133546 0 0)
(0.133524 0 0)
(0.1335 0 0)
(0.133476 0 0)
(0.133451 0 0)
(0.133426 0 0)
(0.1334 0 0)
(0.133375 0 0)
(0.133348 0 0)
(0.133321 0 0)
(0.133294 0 0)
(0.133267 0 0)
(0.133239 0 0)
(0.133211 0 0)
(0.133182 0 0)
(0.133154 0 0)
(0.133125 0 0)
(0.133096 0 0)
(0.133067 0 0)
(0.133038 0 0)
(0.133009 0 0)
(0.13298 0 0)
(0.132951 0 0)
(0.132922 0 0)
(0.132893 0 0)
(0.132864 0 0)
(0.132835 0 0)
(0.132806 0 0)
(0.132777 0 0)
(0.132749 0 0)
(0.132721 0 0)
(0.132693 0 0)
(0.132665 0 0)
(0.132638 0 0)
(0.132611 0 0)
(0.132584 0 0)
(0.132557 0 0)
(0.132531 0 0)
(0.132506 0 0)
(0.13248 0 0)
(0.132455 0 0)
(0.132431 0 0)
(0.132407 0 0)
(0.132383 0 0)
(0.13236 0 0)
(0.132337 0 0)
(0.132315 0 0)
(0.132294 0 0)
(0.132272 0 0)
(0.132252 0 0)
(0.132231 0 0)
(0.132212 0 0)
(0.132192 0 0)
(0.132174 0 0)
(0.132155 0 0)
(0.132138 0 0)
(0.132121 0 0)
(0.132104 0 0)
(0.132088 0 0)
(0.132072 0 0)
(0.132057 0 0)
(0.132042 0 0)
(0.132028 0 0)
(0.132014 0 0)
(0.132001 0 0)
(0.131988 0 0)
(0.131976 0 0)
(0.131964 0 0)
(0.131953 0 0)
(0.131942 0 0)
(0.131931 0 0)
(0.131921 0 0)
(0.131912 0 0)
(0.131902 0 0)
(0.131893 0 0)
(0.131885 0 0)
(0.131877 0 0)
(0.131869 0 0)
(0.131862 0 0)
(0.131855 0 0)
(0.131848 0 0)
(0.131841 0 0)
(0.131835 0 0)
(0.131829 0 0)
(0.131824 0 0)
(0.131819 0 0)
(0.131814 0 0)
(0.131809 0 0)
(0.131805 0 0)
(0.1318 0 0)
(0.131796 0 0)
(0.131793 0 0)
(0.131789 0 0)
(0.131786 0 0)
(0.131782 0 0)
(0.131779 0 0)
(0.131777 0 0)
(0.131774 0 0)
(0.131771 0 0)
(0.131769 0 0)
(0.131767 0 0)
(0.131765 0 0)
(0.131763 0 0)
(0.131761 0 0)
(0.131759 0 0)
(0.131758 0 0)
(0.131756 0 0)
(0.131755 0 0)
(0.131754 0 0)
(0.131752 0 0)
(0.131751 0 0)
(0.13175 0 0)
(0.131749 0 0)
(0.131748 0 0)
(0.131748 0 0)
(0.131747 0 0)
(0.131746 0 0)
(0.131745 0 0)
(0.131745 0 0)
(0.131744 0 0)
(0.131744 0 0)
(0.131743 0 0)
(0.131743 0 0)
(0.131742 0 0)
(0.131742 0 0)
(0.131742 0 0)
(0.131741 0 0)
(0.131741 0 0)
(0.131741 0 0)
(0.131741 0 0)
(0.13174 0 0)
(0.13174 0 0)
(0.13174 0 0)
(0.13174 0 0)
(0.13174 0 0)
(0.131739 0 0)
(0.131739 0 0)
(0.131739 0 0)
(0.131739 0 0)
(0.131739 0 0)
(0.131739 0 0)
(0.131739 0 0)
(0.131739 0 0)
(0.131739 0 0)
(0.131739 0 0)
(0.131739 0 0)
(0.131738 0 0)
(0.131738 0 0)
(0.131738 0 0)
(0.131738 0 0)
(0.131738 0 0)
(0.131738 0 0)
(0.131738 0 0)
(0.131738 0 0)
(0.131738 0 0)
(0.131738 0 0)
(0.131738 0 0)
(0.131738 0 0)
(0.131738 0 0)
(0.131738 0 0)
(0.131738 0 0)
(0.131738 0 0)
(0.131738 0 0)
(0.131738 0 0)
(0.131738 0 0)
(0.131738 0 0)
(0.131738 0 0)
(0.131738 0 0)
(0.131738 0 0)
(0.131738 0 0)
(0.131738 0 0)
(0.131738 0 0)
(0.131738 0 0)
(0.131738 0 0)
(0.131738 0 0)
(0.131738 0 0)
(0.131738 0 0)
(0.131738 0 0)
(0.131738 0 0)
(0.131738 0 0)
(0.131738 0 0)
(0.131738 0 0)
(0.131738 0 0)
(0.131738 0 0)
(0.131738 0 0)
(0.131738 0 0)
(0.131738 0 0)
(0.131738 0 0)
(0.131738 0 0)
(0.131738 0 0)
(0.131738 0 0)
(0.131738 0 0)
(0.131738 0 0)
(0.131738 0 0)
(0.131738 0 0)
(0.131738 0 0)
(0.131738 0 0)
(0.131738 0 0)
(0.131738 0 0)
(0.131738 0 0)
(0.131738 0 0)
(0.131738 0 0)
(0.131738 0 0)
(0.131738 0 0)
(0.131738 0 0)
(0.131738 0 0)
(0.131738 0 0)
(0.131738 0 0)
(0.131738 0 0)
(0.131738 0 0)
(0.131738 0 0)
(0.131738 0 0)
(0.131738 0 0)
(0.131738 0 0)
(0.131738 0 0)
(0.131738 0 0)
(0.131738 0 0)
(0.131738 0 0)
(0.131738 0 0)
(0.131738 0 0)
(0.131738 0 0)
(0.131738 0 0)
(0.131738 0 0)
(0.131738 0 0)
(0.131738 0 0)
(0.131738 0 0)
(0.131738 0 0)
(0.131738 0 0)
(0.131738 0 0)
(0.131738 0 0)
(0.131738 0 0)
(0.131738 0 0)
(0.131738 0 0)
(0.131738 0 0)
(0.131738 0 0)
(0.131738 0 0)
(0.131738 0 0)
(0.131738 0 0)
(0.131738 0 0)
(0.131738 0 0)
(0.131738 0 0)
(0.131738 0 0)
(0.131738 0 0)
(0.131738 0 0)
(0.131738 0 0)
(0.131738 0 0)
(0.131738 0 0)
(0.131738 0 0)
(0.131738 0 0)
(0.131738 0 0)
(0.131738 0 0)
(0.131738 0 0)
(0.131738 0 0)
(0.131738 0 0)
(0.131738 0 0)
(0.131738 0 0)
(0.131738 0 0)
(0.131738 0 0)
(0.131738 0 0)
(0.131738 0 0)
(0.131738 0 0)
(0.131738 0 0)
(0.131738 0 0)
(0.131738 0 0)
(0.131738 0 0)
(0.131738 0 0)
(0.131738 0 0)
(0.131738 0 0)
(0.131738 0 0)
(0.131738 0 0)
(0.131738 0 0)
(0.131738 0 0)
(0.131738 0 0)
(0.131738 0 0)
(0.131738 0 0)
(0.131738 0 0)
(0.131738 0 0)
(0.131738 0 0)
(0.131738 0 0)
(0.131738 0 0)
(0.131738 0 0)
(0.131738 0 0)
(0.131738 0 0)
(0.131738 0 0)
(0.131738 0 0)
(0.131738 0 0)
(0.131738 0 0)
(0.131738 0 0)
(0.131738 0 0)
(0.131738 0 0)
(0.131738 0 0)
(0.131738 0 0)
(0.131738 0 0)
(0.131738 0 0)
(0.131738 0 0)
(0.131738 0 0)
(0.131738 0 0)
(0.131738 0 0)
(0.131738 0 0)
(0.131738 0 0)
(0.131738 0 0)
(0.131738 0 0)
(0.131738 0 0)
(0.131738 0 0)
(0.131738 0 0)
(0.131738 0 0)
(0.131738 0 0)
(0.131738 0 0)
(0.131738 0 0)
(0.131738 0 0)
(0.131738 0 0)
(0.131738 0 0)
(0.131738 0 0)
(0.131738 0 0)
(0.131738 0 0)
(0.131738 0 0)
(0.131738 0 0)
(0.131738 0 0)
(0.131738 0 0)
(0.131738 0 0)
(0.131738 0 0)
(0.131738 0 0)
(0.131738 0 0)
(0.131738 0 0)
(0.131738 0 0)
(0.131738 0 0)
(0.131738 0 0)
(0.131738 0 0)
(0.131738 0 0)
(0.131738 0 0)
(0.131738 0 0)
(0.131738 0 0)
(0.131738 0 0)
(0.131738 0 0)
(0.131738 0 0)
(0.131738 0 0)
(0.131738 0 0)
(0.131738 0 0)
(0.131738 0 0)
(0.131738 0 0)
(0.131738 0 0)
(0.131738 0 0)
(0.131738 0 0)
(0.131738 0 0)
(0.131738 0 0)
(0.131738 0 0)
(0.131738 0 0)
(0.131738 0 0)
(0.131738 0 0)
(0.131738 0 0)
(0.131738 0 0)
(0.131738 0 0)
(0.131738 0 0)
(0.131738 0 0)
(0.131738 0 0)
(0.131738 0 0)
(0.131738 0 0)
(0.131738 0 0)
(0.131738 0 0)
(0.131738 0 0)
(0.131738 0 0)
(0.131738 0 0)
(0.131738 0 0)
(0.131738 0 0)
(0.131738 0 0)
(0.131738 0 0)
(0.131738 0 0)
(0.131738 0 0)
(0.131738 0 0)
(0.131738 0 0)
(0.131738 0 0)
(0.131738 0 0)
(0.131738 0 0)
(0.131738 0 0)
(0.131738 0 0)
(0.131738 0 0)
(0.131738 0 0)
(0.131738 0 0)
(0.131738 0 0)
(0.131738 0 0)
(0.131738 0 0)
(0.131738 0 0)
(0.131738 0 0)
(0.131738 0 0)
(0.131738 0 0)
(0.131738 0 0)
(0.131738 0 0)
(0.131738 0 0)
(0.131738 0 0)
(0.131738 0 0)
(0.131738 0 0)
(0.131738 0 0)
(0.131738 0 0)
(0.131738 0 0)
(0.131738 0 0)
(0.131738 0 0)
(0.131738 0 0)
(0.131738 0 0)
(0.131738 0 0)
(0.131738 0 0)
(0.131738 0 0)
(0.131738 0 0)
(0.131738 0 0)
(0.131738 0 0)
(0.131738 0 0)
(0.131738 0 0)
(0.131738 0 0)
(0.131738 0 0)
(0.131738 0 0)
(0.131738 0 0)
(0.131738 0 0)
(0.131738 0 0)
(0.131738 0 0)
(0.131738 0 0)
(0.131738 0 0)
(0.131738 0 0)
(0.131738 0 0)
(0.131738 0 0)
(0.131738 0 0)
(0.131738 0 0)
(0.131738 0 0)
(0.131738 0 0)
(0.131738 0 0)
(0.131738 0 0)
(0.131738 0 0)
(0.131738 0 0)
(0.131738 0 0)
(0.131738 0 0)
(0.131738 0 0)
(0.131738 0 0)
(0.131738 0 0)
(0.131738 0 0)
(0.131738 0 0)
(0.131738 0 0)
(0.131738 0 0)
(0.131738 0 0)
(0.131738 0 0)
(0.131738 0 0)
(0.131738 0 0)
(0.131738 0 0)
(0.131738 0 0)
(0.131738 0 0)
(0.131738 0 0)
(0.131738 0 0)
(0.131738 0 0)
(0.131738 0 0)
(0.131738 0 0)
(0.131738 0 0)
(0.131738 0 0)
(0.131738 0 0)
(0.131738 0 0)
(0.131738 0 0)
(0.131738 0 0)
(0.131738 0 0)
(0.131738 0 0)
(0.131738 0 0)
(0.131738 0 0)
(0.131738 0 0)
(0.131738 0 0)
(0.131738 0 0)
(0.131738 0 0)
(0.131738 0 0)
(0.131738 0 0)
(0.131738 0 0)
(0.131738 0 0)
(0.131738 0 0)
(0.131738 0 0)
(0.131738 0 0)
(0.131738 0 0)
(0.131738 0 0)
(0.131738 0 0)
(0.131738 0 0)
(0.131738 0 0)
(0.131738 0 0)
(0.131738 0 0)
(0.131738 0 0)
(0.131738 0 0)
(0.131738 0 0)
(0.131738 0 0)
(0.131738 0 0)
(0.131738 0 0)
(0.131738 0 0)
(0.131738 0 0)
(0.131738 0 0)
(0.131738 0 0)
(0.131738 0 0)
(0.131738 0 0)
(0.131738 0 0)
(0.131738 0 0)
(0.131738 0 0)
(0.131738 0 0)
(0.131738 0 0)
(0.131738 0 0)
(0.131738 0 0)
(0.131738 0 0)
(0.131738 0 0)
(0.131738 0 0)
(0.131738 0 0)
(0.131738 0 0)
(0.131738 0 0)
(0.131738 0 0)
(0.131738 0 0)
(0.131738 0 0)
(0.131738 0 0)
(0.131738 0 0)
(0.131738 0 0)
(0.131738 0 0)
(0.131738 0 0)
(0.131738 0 0)
(0.131738 0 0)
(0.131738 0 0)
(0.131738 0 0)
(0.131738 0 0)
(0.131738 0 0)
(0.131738 0 0)
(0.131738 0 0)
(0.131738 0 0)
(0.131738 0 0)
(0.131738 0 0)
(0.131738 0 0)
(0.131738 0 0)
(0.131738 0 0)
(0.131738 0 0)
(0.131738 0 0)
(0.131738 0 0)
(0.131738 0 0)
(0.131738 0 0)
(0.131738 0 0)
(0.131738 0 0)
(0.131738 0 0)
(0.131738 0 0)
(0.131738 0 0)
(0.131738 0 0)
(0.131738 0 0)
(0.131738 0 0)
(0.131738 0 0)
(0.131738 0 0)
(0.131738 0 0)
(0.131738 0 0)
(0.131738 0 0)
(0.131738 0 0)
(0.131738 0 0)
(0.131738 0 0)
(0.131738 0 0)
(0.131738 0 0)
(0.131738 0 0)
(0.131738 0 0)
(0.131738 0 0)
(0.131738 0 0)
(0.131738 0 0)
(0.131738 0 0)
(0.131738 0 0)
(0.131738 0 0)
(0.131738 0 0)
(0.131738 0 0)
(0.131738 0 0)
(0.131738 0 0)
(0.131738 0 0)
(0.131738 0 0)
(0.131738 0 0)
(0.131738 0 0)
(0.131738 0 0)
(0.131738 0 0)
(0.131738 0 0)
(0.131738 0 0)
(0.131738 0 0)
(0.131738 0 0)
(0.131738 0 0)
(0.131738 0 0)
(0.131738 0 0)
(0.131738 0 0)
(0.131738 0 0)
(0.131738 0 0)
(0.131738 0 0)
(0.131738 0 0)
(0.131738 0 0)
(0.131738 0 0)
(0.131738 0 0)
(0.131738 0 0)
(0.131738 0 0)
(0.131738 0 0)
(0.131738 0 0)
(0.131738 0 0)
(0.131738 0 0)
(0.131738 0 0)
(0.131738 0 0)
(0.131738 0 0)
(0.131738 0 0)
(0.131738 0 0)
(0.131738 0 0)
(0.131738 0 0)
(0.131738 0 0)
(0.131738 0 0)
(0.131738 0 0)
(0.131738 0 0)
(0.131738 0 0)
(0.131738 0 0)
(0.131738 0 0)
(0.131738 0 0)
(0.131738 0 0)
(0.131738 0 0)
(0.131738 0 0)
(0.131738 0 0)
(0.131738 0 0)
(0.131738 0 0)
(0.131738 0 0)
(0.131738 0 0)
(0.131738 0 0)
(0.131738 0 0)
(0.131738 0 0)
(0.131738 0 0)
(0.131738 0 0)
(0.131738 0 0)
(0.131738 0 0)
(0.131738 0 0)
(0.131738 0 0)
(0.131738 0 0)
(0.131738 0 0)
(0.131738 0 0)
(0.131738 0 0)
(0.131738 0 0)
(0.131738 0 0)
(0.131738 0 0)
(0.131738 0 0)
(0.131738 0 0)
(0.131738 0 0)
(0.131738 0 0)
(0.131738 0 0)
(0.131738 0 0)
(0.131738 0 0)
(0.131738 0 0)
(0.131738 0 0)
(0.131738 0 0)
(0.131738 0 0)
(0.131738 0 0)
(0.131738 0 0)
(0.131738 0 0)
(0.131738 0 0)
(0.131738 0 0)
(0.131738 0 0)
(0.131738 0 0)
(0.131738 0 0)
(0.131738 0 0)
(0.131738 0 0)
(0.131738 0 0)
(0.131738 0 0)
(0.131738 0 0)
(0.131738 0 0)
(0.131738 0 0)
(0.131738 0 0)
(0.131738 0 0)
(0.131738 0 0)
(0.131738 0 0)
(0.131738 0 0)
(0.131738 0 0)
(0.131738 0 0)
(0.131738 0 0)
(0.131738 0 0)
(0.131738 0 0)
(0.131738 0 0)
(0.131738 0 0)
(0.131738 0 0)
(0.131738 0 0)
(0.131738 0 0)
(0.131738 0 0)
(0.131738 0 0)
(0.131738 0 0)
(0.131738 0 0)
(0.131738 0 0)
(0.131738 0 0)
(0.131738 0 0)
(0.131738 0 0)
(0.131738 0 0)
(0.131738 0 0)
(0.131738 0 0)
(0.131738 0 0)
(0.131738 0 0)
(0.131738 0 0)
(0.131738 0 0)
(0.131738 0 0)
(0.131738 0 0)
(0.131738 0 0)
(0.131738 0 0)
(0.131738 0 0)
(0.131738 0 0)
(0.131738 0 0)
(0.131738 0 0)
(0.131738 0 0)
(0.131738 0 0)
(0.131738 0 0)
(0.131738 0 0)
(0.131738 0 0)
(0.131738 0 0)
(0.131738 0 0)
(0.131738 0 0)
(0.131738 0 0)
(0.131738 0 0)
(0.131738 0 0)
(0.131738 0 0)
(0.131738 0 0)
(0.131738 0 0)
(0.131738 0 0)
(0.131738 0 0)
(0.131738 0 0)
(0.131738 0 0)
(0.131738 0 0)
(0.131738 0 0)
(0.131738 0 0)
(0.131738 0 0)
(0.131738 0 0)
(0.131738 0 0)
(0.131738 0 0)
(0.131738 0 0)
(0.131738 0 0)
(0.131738 0 0)
(0.131738 0 0)
(0.131738 0 0)
(0.131737 0 0)
(0.131739 0 0)
(0.131737 0 0)
(0.131739 0 0)
(0.131737 0 0)
(0.131739 0 0)
(0.131737 0 0)
(0.131739 0 0)
(0.131737 0 0)
(0.131739 0 0)
(0.131737 0 0)
(0.131739 0 0)
(0.131736 0 0)
(0.131739 0 0)
(0.131736 0 0)
(0.13174 0 0)
(0.131736 0 0)
(0.13174 0 0)
(0.131736 0 0)
(0.13174 0 0)
(0.131735 0 0)
(0.131741 0 0)
(0.131735 0 0)
(0.131741 0 0)
(0.131734 0 0)
(0.131741 0 0)
(0.131734 0 0)
(0.131742 0 0)
(0.131733 0 0)
(0.131742 0 0)
(0.131732 0 0)
(0.131743 0 0)
(0.131732 0 0)
(0.131744 0 0)
(0.131731 0 0)
(0.131744 0 0)
(0.13173 0 0)
(0.131745 0 0)
(0.131729 0 0)
(0.131746 0 0)
(0.131727 0 0)
(0.131747 0 0)
(0.131726 0 0)
(0.131748 0 0)
(0.131724 0 0)
(0.131749 0 0)
(0.131723 0 0)
(0.13175 0 0)
(0.131721 0 0)
(0.131751 0 0)
(0.131719 0 0)
(0.131752 0 0)
(0.131717 0 0)
(0.131753 0 0)
(0.131715 0 0)
)
;

boundaryField
{
    topWall
    {
        type            empty;
    }
    bottomWall
    {
        type            empty;
    }
    leftAndRight_half1
    {
        type            cyclic;
    }
    leftAndRight_half0
    {
        type            cyclic;
    }
    frontAndBack
    {
        type            empty;
    }
}


// ************************************************************************* //
