/*--------------------------------*- C++ -*----------------------------------*\
  =========                 |
  \\      /  F ield         | OpenFOAM: The Open Source CFD Toolbox
   \\    /   O peration     | Website:  https://openfoam.org
    \\  /    A nd           | Version:  9
     \\/     M anipulation  |
\*---------------------------------------------------------------------------*/
FoamFile
{
    format      ascii;
    class       volVectorField;
    location    "3.05";
    object      U;
}
// * * * * * * * * * * * * * * * * * * * * * * * * * * * * * * * * * * * * * //

dimensions      [0 1 -1 0 0 0 0];

internalField   nonuniform List<vector> 
1000
(
(0.131764 0 0)
(0.131696 0 0)
(0.131764 0 0)
(0.131693 0 0)
(0.131765 0 0)
(0.131691 0 0)
(0.131766 0 0)
(0.131689 0 0)
(0.131766 0 0)
(0.131686 0 0)
(0.131767 0 0)
(0.131684 0 0)
(0.131767 0 0)
(0.131682 0 0)
(0.131768 0 0)
(0.131679 0 0)
(0.131768 0 0)
(0.131677 0 0)
(0.131768 0 0)
(0.131675 0 0)
(0.131769 0 0)
(0.131673 0 0)
(0.131769 0 0)
(0.13167 0 0)
(0.131769 0 0)
(0.131668 0 0)
(0.131769 0 0)
(0.131666 0 0)
(0.131769 0 0)
(0.131665 0 0)
(0.131768 0 0)
(0.131663 0 0)
(0.131768 0 0)
(0.131661 0 0)
(0.131768 0 0)
(0.13166 0 0)
(0.131768 0 0)
(0.131659 0 0)
(0.131768 0 0)
(0.131658 0 0)
(0.131768 0 0)
(0.131658 0 0)
(0.131768 0 0)
(0.131658 0 0)
(0.131768 0 0)
(0.131658 0 0)
(0.131769 0 0)
(0.131659 0 0)
(0.131769 0 0)
(0.13166 0 0)
(0.13177 0 0)
(0.131662 0 0)
(0.131771 0 0)
(0.131664 0 0)
(0.131773 0 0)
(0.131667 0 0)
(0.131775 0 0)
(0.131671 0 0)
(0.131777 0 0)
(0.131675 0 0)
(0.13178 0 0)
(0.131681 0 0)
(0.131784 0 0)
(0.131687 0 0)
(0.131788 0 0)
(0.131694 0 0)
(0.131793 0 0)
(0.131702 0 0)
(0.131799 0 0)
(0.131711 0 0)
(0.131806 0 0)
(0.131721 0 0)
(0.131814 0 0)
(0.131733 0 0)
(0.131823 0 0)
(0.131746 0 0)
(0.131833 0 0)
(0.13176 0 0)
(0.131845 0 0)
(0.131776 0 0)
(0.131858 0 0)
(0.131793 0 0)
(0.131873 0 0)
(0.13181 0 0)
(0.131891 0 0)
(0.131827 0 0)
(0.131915 0 0)
(0.13184 0 0)
(0.131951 0 0)
(0.131841 0 0)
(0.132006 0 0)
(0.131827 0 0)
(0.132086 0 0)
(0.131806 0 0)
(0.132175 0 0)
(0.131818 0 0)
(0.132239 0 0)
(0.131913 0 0)
(0.132271 0 0)
(0.132082 0 0)
(0.132327 0 0)
(0.132254 0 0)
(0.132431 0 0)
(0.132398 0 0)
(0.132548 0 0)
(0.132516 0 0)
(0.132649 0 0)
(0.132609 0 0)
(0.132724 0 0)
(0.132677 0 0)
(0.132777 0 0)
(0.132728 0 0)
(0.132815 0 0)
(0.132767 0 0)
(0.132846 0 0)
(0.132801 0 0)
(0.132874 0 0)
(0.132832 0 0)
(0.132901 0 0)
(0.132865 0 0)
(0.132929 0 0)
(0.132897 0 0)
(0.132958 0 0)
(0.132932 0 0)
(0.132989 0 0)
(0.132967 0 0)
(0.133021 0 0)
(0.133003 0 0)
(0.133054 0 0)
(0.133041 0 0)
(0.133089 0 0)
(0.133079 0 0)
(0.133125 0 0)
(0.133119 0 0)
(0.133162 0 0)
(0.133159 0 0)
(0.1332 0 0)
(0.133201 0 0)
(0.133239 0 0)
(0.133242 0 0)
(0.133279 0 0)
(0.133285 0 0)
(0.13332 0 0)
(0.133328 0 0)
(0.133361 0 0)
(0.133371 0 0)
(0.133403 0 0)
(0.133415 0 0)
(0.133445 0 0)
(0.133458 0 0)
(0.133487 0 0)
(0.133502 0 0)
(0.133529 0 0)
(0.133545 0 0)
(0.133571 0 0)
(0.133588 0 0)
(0.133613 0 0)
(0.133631 0 0)
(0.133655 0 0)
(0.133673 0 0)
(0.133695 0 0)
(0.133714 0 0)
(0.133735 0 0)
(0.133755 0 0)
(0.133775 0 0)
(0.133794 0 0)
(0.133813 0 0)
(0.133832 0 0)
(0.13385 0 0)
(0.133869 0 0)
(0.133885 0 0)
(0.133904 0 0)
(0.13392 0 0)
(0.133938 0 0)
(0.133952 0 0)
(0.133969 0 0)
(0.133983 0 0)
(0.133999 0 0)
(0.134011 0 0)
(0.134027 0 0)
(0.134038 0 0)
(0.134053 0 0)
(0.134062 0 0)
(0.134076 0 0)
(0.134084 0 0)
(0.134097 0 0)
(0.134102 0 0)
(0.134116 0 0)
(0.134118 0 0)
(0.134133 0 0)
(0.134131 0 0)
(0.134147 0 0)
(0.134141 0 0)
(0.134156 0 0)
(0.134151 0 0)
(0.134162 0 0)
(0.134159 0 0)
(0.134168 0 0)
(0.134167 0 0)
(0.134177 0 0)
(0.13418 0 0)
(0.134191 0 0)
(0.13419 0 0)
(0.134185 0 0)
(0.134151 0 0)
(0.134098 0 0)
(0.134013 0 0)
(0.133922 0 0)
(0.133825 0 0)
(0.133747 0 0)
(0.133679 0 0)
(0.133634 0 0)
(0.133599 0 0)
(0.13358 0 0)
(0.133564 0 0)
(0.133557 0 0)
(0.133547 0 0)
(0.133544 0 0)
(0.133537 0 0)
(0.133533 0 0)
(0.133526 0 0)
(0.133522 0 0)
(0.133513 0 0)
(0.133508 0 0)
(0.133499 0 0)
(0.133492 0 0)
(0.133482 0 0)
(0.133474 0 0)
(0.133463 0 0)
(0.133454 0 0)
(0.133441 0 0)
(0.133431 0 0)
(0.133418 0 0)
(0.133406 0 0)
(0.133392 0 0)
(0.13338 0 0)
(0.133365 0 0)
(0.133352 0 0)
(0.133336 0 0)
(0.133322 0 0)
(0.133305 0 0)
(0.13329 0 0)
(0.133273 0 0)
(0.133257 0 0)
(0.133239 0 0)
(0.133222 0 0)
(0.133204 0 0)
(0.133186 0 0)
(0.133167 0 0)
(0.133149 0 0)
(0.13313 0 0)
(0.133111 0 0)
(0.133091 0 0)
(0.133072 0 0)
(0.133052 0 0)
(0.133033 0 0)
(0.133012 0 0)
(0.132992 0 0)
(0.132972 0 0)
(0.132952 0 0)
(0.132931 0 0)
(0.13291 0 0)
(0.132889 0 0)
(0.132869 0 0)
(0.132848 0 0)
(0.132827 0 0)
(0.132806 0 0)
(0.132786 0 0)
(0.132765 0 0)
(0.132744 0 0)
(0.132724 0 0)
(0.132703 0 0)
(0.132682 0 0)
(0.132662 0 0)
(0.132642 0 0)
(0.132622 0 0)
(0.132601 0 0)
(0.132582 0 0)
(0.132562 0 0)
(0.132542 0 0)
(0.132523 0 0)
(0.132503 0 0)
(0.132484 0 0)
(0.132465 0 0)
(0.132447 0 0)
(0.132428 0 0)
(0.13241 0 0)
(0.132392 0 0)
(0.132374 0 0)
(0.132357 0 0)
(0.132339 0 0)
(0.132322 0 0)
(0.132306 0 0)
(0.132289 0 0)
(0.132273 0 0)
(0.132257 0 0)
(0.132241 0 0)
(0.132226 0 0)
(0.132211 0 0)
(0.132196 0 0)
(0.132182 0 0)
(0.132167 0 0)
(0.132153 0 0)
(0.13214 0 0)
(0.132126 0 0)
(0.132113 0 0)
(0.1321 0 0)
(0.132088 0 0)
(0.132076 0 0)
(0.132064 0 0)
(0.132052 0 0)
(0.132041 0 0)
(0.13203 0 0)
(0.132019 0 0)
(0.132009 0 0)
(0.131999 0 0)
(0.131989 0 0)
(0.131979 0 0)
(0.13197 0 0)
(0.131961 0 0)
(0.131952 0 0)
(0.131944 0 0)
(0.131935 0 0)
(0.131927 0 0)
(0.131919 0 0)
(0.131912 0 0)
(0.131905 0 0)
(0.131898 0 0)
(0.131891 0 0)
(0.131884 0 0)
(0.131878 0 0)
(0.131872 0 0)
(0.131866 0 0)
(0.13186 0 0)
(0.131855 0 0)
(0.131849 0 0)
(0.131844 0 0)
(0.131839 0 0)
(0.131835 0 0)
(0.13183 0 0)
(0.131826 0 0)
(0.131822 0 0)
(0.131818 0 0)
(0.131814 0 0)
(0.13181 0 0)
(0.131806 0 0)
(0.131803 0 0)
(0.1318 0 0)
(0.131797 0 0)
(0.131794 0 0)
(0.131791 0 0)
(0.131788 0 0)
(0.131785 0 0)
(0.131783 0 0)
(0.131781 0 0)
(0.131778 0 0)
(0.131776 0 0)
(0.131774 0 0)
(0.131772 0 0)
(0.13177 0 0)
(0.131768 0 0)
(0.131767 0 0)
(0.131765 0 0)
(0.131764 0 0)
(0.131762 0 0)
(0.131761 0 0)
(0.131759 0 0)
(0.131758 0 0)
(0.131757 0 0)
(0.131756 0 0)
(0.131755 0 0)
(0.131754 0 0)
(0.131753 0 0)
(0.131752 0 0)
(0.131751 0 0)
(0.13175 0 0)
(0.131749 0 0)
(0.131749 0 0)
(0.131748 0 0)
(0.131747 0 0)
(0.131747 0 0)
(0.131746 0 0)
(0.131746 0 0)
(0.131745 0 0)
(0.131745 0 0)
(0.131744 0 0)
(0.131744 0 0)
(0.131744 0 0)
(0.131743 0 0)
(0.131743 0 0)
(0.131742 0 0)
(0.131742 0 0)
(0.131742 0 0)
(0.131742 0 0)
(0.131741 0 0)
(0.131741 0 0)
(0.131741 0 0)
(0.131741 0 0)
(0.131741 0 0)
(0.13174 0 0)
(0.13174 0 0)
(0.13174 0 0)
(0.13174 0 0)
(0.13174 0 0)
(0.13174 0 0)
(0.131739 0 0)
(0.131739 0 0)
(0.131739 0 0)
(0.131739 0 0)
(0.131739 0 0)
(0.131739 0 0)
(0.131739 0 0)
(0.131739 0 0)
(0.131739 0 0)
(0.131739 0 0)
(0.131739 0 0)
(0.131739 0 0)
(0.131739 0 0)
(0.131739 0 0)
(0.131738 0 0)
(0.131738 0 0)
(0.131738 0 0)
(0.131738 0 0)
(0.131738 0 0)
(0.131738 0 0)
(0.131738 0 0)
(0.131738 0 0)
(0.131738 0 0)
(0.131738 0 0)
(0.131738 0 0)
(0.131738 0 0)
(0.131738 0 0)
(0.131738 0 0)
(0.131738 0 0)
(0.131738 0 0)
(0.131738 0 0)
(0.131738 0 0)
(0.131738 0 0)
(0.131738 0 0)
(0.131738 0 0)
(0.131738 0 0)
(0.131738 0 0)
(0.131738 0 0)
(0.131738 0 0)
(0.131738 0 0)
(0.131738 0 0)
(0.131738 0 0)
(0.131738 0 0)
(0.131738 0 0)
(0.131738 0 0)
(0.131738 0 0)
(0.131738 0 0)
(0.131738 0 0)
(0.131738 0 0)
(0.131738 0 0)
(0.131738 0 0)
(0.131738 0 0)
(0.131738 0 0)
(0.131738 0 0)
(0.131738 0 0)
(0.131738 0 0)
(0.131738 0 0)
(0.131738 0 0)
(0.131738 0 0)
(0.131738 0 0)
(0.131738 0 0)
(0.131738 0 0)
(0.131738 0 0)
(0.131738 0 0)
(0.131738 0 0)
(0.131738 0 0)
(0.131738 0 0)
(0.131738 0 0)
(0.131738 0 0)
(0.131738 0 0)
(0.131738 0 0)
(0.131738 0 0)
(0.131738 0 0)
(0.131738 0 0)
(0.131738 0 0)
(0.131738 0 0)
(0.131738 0 0)
(0.131738 0 0)
(0.131738 0 0)
(0.131738 0 0)
(0.131738 0 0)
(0.131738 0 0)
(0.131738 0 0)
(0.131738 0 0)
(0.131738 0 0)
(0.131738 0 0)
(0.131738 0 0)
(0.131738 0 0)
(0.131738 0 0)
(0.131738 0 0)
(0.131738 0 0)
(0.131738 0 0)
(0.131738 0 0)
(0.131738 0 0)
(0.131738 0 0)
(0.131738 0 0)
(0.131738 0 0)
(0.131738 0 0)
(0.131738 0 0)
(0.131738 0 0)
(0.131738 0 0)
(0.131738 0 0)
(0.131738 0 0)
(0.131738 0 0)
(0.131738 0 0)
(0.131738 0 0)
(0.131738 0 0)
(0.131738 0 0)
(0.131738 0 0)
(0.131738 0 0)
(0.131738 0 0)
(0.131738 0 0)
(0.131738 0 0)
(0.131738 0 0)
(0.131738 0 0)
(0.131738 0 0)
(0.131738 0 0)
(0.131738 0 0)
(0.131738 0 0)
(0.131738 0 0)
(0.131738 0 0)
(0.131738 0 0)
(0.131738 0 0)
(0.131738 0 0)
(0.131738 0 0)
(0.131738 0 0)
(0.131738 0 0)
(0.131738 0 0)
(0.131738 0 0)
(0.131738 0 0)
(0.131738 0 0)
(0.131738 0 0)
(0.131738 0 0)
(0.131738 0 0)
(0.131738 0 0)
(0.131738 0 0)
(0.131738 0 0)
(0.131738 0 0)
(0.131738 0 0)
(0.131738 0 0)
(0.131738 0 0)
(0.131738 0 0)
(0.131738 0 0)
(0.131738 0 0)
(0.131738 0 0)
(0.131738 0 0)
(0.131738 0 0)
(0.131738 0 0)
(0.131738 0 0)
(0.131738 0 0)
(0.131738 0 0)
(0.131738 0 0)
(0.131738 0 0)
(0.131738 0 0)
(0.131738 0 0)
(0.131738 0 0)
(0.131738 0 0)
(0.131738 0 0)
(0.131738 0 0)
(0.131738 0 0)
(0.131738 0 0)
(0.131738 0 0)
(0.131738 0 0)
(0.131738 0 0)
(0.131738 0 0)
(0.131738 0 0)
(0.131738 0 0)
(0.131738 0 0)
(0.131738 0 0)
(0.131738 0 0)
(0.131738 0 0)
(0.131738 0 0)
(0.131738 0 0)
(0.131738 0 0)
(0.131738 0 0)
(0.131738 0 0)
(0.131738 0 0)
(0.131738 0 0)
(0.131738 0 0)
(0.131738 0 0)
(0.131738 0 0)
(0.131738 0 0)
(0.131738 0 0)
(0.131738 0 0)
(0.131738 0 0)
(0.131738 0 0)
(0.131738 0 0)
(0.131738 0 0)
(0.131738 0 0)
(0.131738 0 0)
(0.131738 0 0)
(0.131738 0 0)
(0.131738 0 0)
(0.131738 0 0)
(0.131738 0 0)
(0.131738 0 0)
(0.131738 0 0)
(0.131738 0 0)
(0.131738 0 0)
(0.131738 0 0)
(0.131738 0 0)
(0.131738 0 0)
(0.131738 0 0)
(0.131738 0 0)
(0.131738 0 0)
(0.131738 0 0)
(0.131738 0 0)
(0.131738 0 0)
(0.131738 0 0)
(0.131738 0 0)
(0.131738 0 0)
(0.131738 0 0)
(0.131738 0 0)
(0.131738 0 0)
(0.131738 0 0)
(0.131738 0 0)
(0.131738 0 0)
(0.131738 0 0)
(0.131738 0 0)
(0.131738 0 0)
(0.131738 0 0)
(0.131738 0 0)
(0.131738 0 0)
(0.131738 0 0)
(0.131738 0 0)
(0.131738 0 0)
(0.131738 0 0)
(0.131738 0 0)
(0.131738 0 0)
(0.131738 0 0)
(0.131738 0 0)
(0.131738 0 0)
(0.131738 0 0)
(0.131738 0 0)
(0.131738 0 0)
(0.131738 0 0)
(0.131738 0 0)
(0.131738 0 0)
(0.131738 0 0)
(0.131738 0 0)
(0.131738 0 0)
(0.131738 0 0)
(0.131738 0 0)
(0.131738 0 0)
(0.131738 0 0)
(0.131738 0 0)
(0.131738 0 0)
(0.131738 0 0)
(0.131738 0 0)
(0.131738 0 0)
(0.131738 0 0)
(0.131738 0 0)
(0.131738 0 0)
(0.131738 0 0)
(0.131738 0 0)
(0.131738 0 0)
(0.131738 0 0)
(0.131738 0 0)
(0.131738 0 0)
(0.131738 0 0)
(0.131738 0 0)
(0.131738 0 0)
(0.131738 0 0)
(0.131738 0 0)
(0.131738 0 0)
(0.131738 0 0)
(0.131738 0 0)
(0.131738 0 0)
(0.131738 0 0)
(0.131738 0 0)
(0.131738 0 0)
(0.131738 0 0)
(0.131738 0 0)
(0.131738 0 0)
(0.131738 0 0)
(0.131738 0 0)
(0.131738 0 0)
(0.131738 0 0)
(0.131738 0 0)
(0.131738 0 0)
(0.131738 0 0)
(0.131738 0 0)
(0.131738 0 0)
(0.131738 0 0)
(0.131738 0 0)
(0.131738 0 0)
(0.131738 0 0)
(0.131738 0 0)
(0.131738 0 0)
(0.131738 0 0)
(0.131738 0 0)
(0.131738 0 0)
(0.131738 0 0)
(0.131738 0 0)
(0.131738 0 0)
(0.131738 0 0)
(0.131738 0 0)
(0.131738 0 0)
(0.131738 0 0)
(0.131738 0 0)
(0.131738 0 0)
(0.131738 0 0)
(0.131738 0 0)
(0.131738 0 0)
(0.131738 0 0)
(0.131738 0 0)
(0.131738 0 0)
(0.131738 0 0)
(0.131738 0 0)
(0.131738 0 0)
(0.131738 0 0)
(0.131738 0 0)
(0.131738 0 0)
(0.131738 0 0)
(0.131738 0 0)
(0.131738 0 0)
(0.131738 0 0)
(0.131738 0 0)
(0.131738 0 0)
(0.131738 0 0)
(0.131738 0 0)
(0.131738 0 0)
(0.131738 0 0)
(0.131738 0 0)
(0.131738 0 0)
(0.131738 0 0)
(0.131738 0 0)
(0.131738 0 0)
(0.131738 0 0)
(0.131738 0 0)
(0.131738 0 0)
(0.131738 0 0)
(0.131738 0 0)
(0.131738 0 0)
(0.131738 0 0)
(0.131738 0 0)
(0.131738 0 0)
(0.131738 0 0)
(0.131738 0 0)
(0.131738 0 0)
(0.131738 0 0)
(0.131738 0 0)
(0.131738 0 0)
(0.131738 0 0)
(0.131738 0 0)
(0.131738 0 0)
(0.131738 0 0)
(0.131738 0 0)
(0.131738 0 0)
(0.131738 0 0)
(0.131738 0 0)
(0.131738 0 0)
(0.131738 0 0)
(0.131738 0 0)
(0.131738 0 0)
(0.131738 0 0)
(0.131738 0 0)
(0.131738 0 0)
(0.131738 0 0)
(0.131738 0 0)
(0.131738 0 0)
(0.131738 0 0)
(0.131738 0 0)
(0.131738 0 0)
(0.131738 0 0)
(0.131738 0 0)
(0.131738 0 0)
(0.131738 0 0)
(0.131738 0 0)
(0.131738 0 0)
(0.131738 0 0)
(0.131738 0 0)
(0.131738 0 0)
(0.131738 0 0)
(0.131738 0 0)
(0.131738 0 0)
(0.131738 0 0)
(0.131738 0 0)
(0.131738 0 0)
(0.131738 0 0)
(0.131738 0 0)
(0.131738 0 0)
(0.131738 0 0)
(0.131738 0 0)
(0.131738 0 0)
(0.131738 0 0)
(0.131738 0 0)
(0.131738 0 0)
(0.131738 0 0)
(0.131738 0 0)
(0.131738 0 0)
(0.131738 0 0)
(0.131738 0 0)
(0.131738 0 0)
(0.131738 0 0)
(0.131738 0 0)
(0.131738 0 0)
(0.131738 0 0)
(0.131738 0 0)
(0.131738 0 0)
(0.131738 0 0)
(0.131738 0 0)
(0.131738 0 0)
(0.131738 0 0)
(0.131738 0 0)
(0.131738 0 0)
(0.131738 0 0)
(0.131738 0 0)
(0.131738 0 0)
(0.131738 0 0)
(0.131738 0 0)
(0.131738 0 0)
(0.131738 0 0)
(0.131738 0 0)
(0.131738 0 0)
(0.131738 0 0)
(0.131738 0 0)
(0.131738 0 0)
(0.131738 0 0)
(0.131738 0 0)
(0.131738 0 0)
(0.131738 0 0)
(0.131738 0 0)
(0.131738 0 0)
(0.131738 0 0)
(0.131738 0 0)
(0.131738 0 0)
(0.131738 0 0)
(0.131738 0 0)
(0.131738 0 0)
(0.131738 0 0)
(0.131738 0 0)
(0.131738 0 0)
(0.131738 0 0)
(0.131738 0 0)
(0.131738 0 0)
(0.131738 0 0)
(0.131738 0 0)
(0.131738 0 0)
(0.131738 0 0)
(0.131738 0 0)
(0.131738 0 0)
(0.131738 0 0)
(0.131738 0 0)
(0.131738 0 0)
(0.131738 0 0)
(0.131738 0 0)
(0.131738 0 0)
(0.131738 0 0)
(0.131738 0 0)
(0.131738 0 0)
(0.131738 0 0)
(0.131738 0 0)
(0.131738 0 0)
(0.131738 0 0)
(0.131738 0 0)
(0.131738 0 0)
(0.131738 0 0)
(0.131738 0 0)
(0.131738 0 0)
(0.131738 0 0)
(0.131738 0 0)
(0.131738 0 0)
(0.131738 0 0)
(0.131738 0 0)
(0.131738 0 0)
(0.131738 0 0)
(0.131738 0 0)
(0.131738 0 0)
(0.131738 0 0)
(0.131738 0 0)
(0.131738 0 0)
(0.131738 0 0)
(0.131738 0 0)
(0.131738 0 0)
(0.131738 0 0)
(0.131738 0 0)
(0.131738 0 0)
(0.131738 0 0)
(0.131738 0 0)
(0.131738 0 0)
(0.131738 0 0)
(0.131738 0 0)
(0.131738 0 0)
(0.131738 0 0)
(0.131738 0 0)
(0.131738 0 0)
(0.131738 0 0)
(0.131738 0 0)
(0.131738 0 0)
(0.131738 0 0)
(0.131738 0 0)
(0.131738 0 0)
(0.131738 0 0)
(0.131738 0 0)
(0.131738 0 0)
(0.131738 0 0)
(0.131738 0 0)
(0.131738 0 0)
(0.131738 0 0)
(0.131738 0 0)
(0.131738 0 0)
(0.131737 0 0)
(0.131739 0 0)
(0.131737 0 0)
(0.131739 0 0)
(0.131737 0 0)
(0.131739 0 0)
(0.131737 0 0)
(0.131739 0 0)
(0.131737 0 0)
(0.131739 0 0)
(0.131737 0 0)
(0.131739 0 0)
(0.131737 0 0)
(0.131739 0 0)
(0.131737 0 0)
(0.131739 0 0)
(0.131737 0 0)
(0.131739 0 0)
(0.131736 0 0)
(0.13174 0 0)
(0.131736 0 0)
(0.13174 0 0)
(0.131736 0 0)
(0.13174 0 0)
(0.131736 0 0)
(0.13174 0 0)
(0.131735 0 0)
(0.131741 0 0)
(0.131735 0 0)
(0.131741 0 0)
(0.131735 0 0)
(0.131741 0 0)
(0.131734 0 0)
(0.131741 0 0)
(0.131734 0 0)
(0.131742 0 0)
(0.131734 0 0)
(0.131742 0 0)
(0.131733 0 0)
(0.131743 0 0)
(0.131733 0 0)
(0.131743 0 0)
(0.131732 0 0)
(0.131744 0 0)
(0.131731 0 0)
(0.131744 0 0)
(0.131731 0 0)
(0.131745 0 0)
(0.13173 0 0)
(0.131745 0 0)
(0.131729 0 0)
(0.131746 0 0)
(0.131728 0 0)
(0.131746 0 0)
(0.131728 0 0)
(0.131747 0 0)
(0.131727 0 0)
(0.131748 0 0)
(0.131726 0 0)
(0.131749 0 0)
(0.131725 0 0)
(0.131749 0 0)
(0.131723 0 0)
(0.13175 0 0)
(0.131722 0 0)
(0.131751 0 0)
(0.131721 0 0)
(0.131752 0 0)
(0.13172 0 0)
(0.131753 0 0)
(0.131718 0 0)
(0.131754 0 0)
(0.131717 0 0)
(0.131755 0 0)
(0.131715 0 0)
(0.131756 0 0)
(0.131713 0 0)
(0.131757 0 0)
(0.131712 0 0)
(0.131757 0 0)
(0.13171 0 0)
(0.131758 0 0)
(0.131708 0 0)
(0.131759 0 0)
(0.131706 0 0)
(0.13176 0 0)
(0.131704 0 0)
(0.131761 0 0)
(0.131702 0 0)
(0.131762 0 0)
(0.1317 0 0)
(0.131763 0 0)
(0.131698 0 0)
)
;

boundaryField
{
    topWall
    {
        type            empty;
    }
    bottomWall
    {
        type            empty;
    }
    leftAndRight_half1
    {
        type            cyclic;
    }
    leftAndRight_half0
    {
        type            cyclic;
    }
    frontAndBack
    {
        type            empty;
    }
}


// ************************************************************************* //
