/*--------------------------------*- C++ -*----------------------------------*\
  =========                 |
  \\      /  F ield         | OpenFOAM: The Open Source CFD Toolbox
   \\    /   O peration     | Website:  https://openfoam.org
    \\  /    A nd           | Version:  9
     \\/     M anipulation  |
\*---------------------------------------------------------------------------*/
FoamFile
{
    format      ascii;
    class       volVectorField;
    location    "2.3";
    object      U;
}
// * * * * * * * * * * * * * * * * * * * * * * * * * * * * * * * * * * * * * //

dimensions      [0 1 -1 0 0 0 0];

internalField   nonuniform List<vector> 
1000
(
(0.131758 0 0)
(0.131705 0 0)
(0.131759 0 0)
(0.131702 0 0)
(0.13176 0 0)
(0.1317 0 0)
(0.131761 0 0)
(0.131697 0 0)
(0.131762 0 0)
(0.131694 0 0)
(0.131763 0 0)
(0.13169 0 0)
(0.131764 0 0)
(0.131687 0 0)
(0.131765 0 0)
(0.131684 0 0)
(0.131765 0 0)
(0.13168 0 0)
(0.131766 0 0)
(0.131676 0 0)
(0.131766 0 0)
(0.131672 0 0)
(0.131766 0 0)
(0.131669 0 0)
(0.131767 0 0)
(0.131665 0 0)
(0.131766 0 0)
(0.131661 0 0)
(0.131766 0 0)
(0.131657 0 0)
(0.131766 0 0)
(0.131653 0 0)
(0.131765 0 0)
(0.131649 0 0)
(0.131765 0 0)
(0.131645 0 0)
(0.131764 0 0)
(0.131641 0 0)
(0.131763 0 0)
(0.131638 0 0)
(0.131762 0 0)
(0.131635 0 0)
(0.13176 0 0)
(0.131631 0 0)
(0.131759 0 0)
(0.131628 0 0)
(0.131758 0 0)
(0.131626 0 0)
(0.131756 0 0)
(0.131624 0 0)
(0.131755 0 0)
(0.131622 0 0)
(0.131754 0 0)
(0.131621 0 0)
(0.131753 0 0)
(0.13162 0 0)
(0.131752 0 0)
(0.13162 0 0)
(0.131751 0 0)
(0.131621 0 0)
(0.131751 0 0)
(0.131623 0 0)
(0.131752 0 0)
(0.131626 0 0)
(0.131753 0 0)
(0.131629 0 0)
(0.131754 0 0)
(0.131634 0 0)
(0.131757 0 0)
(0.13164 0 0)
(0.13176 0 0)
(0.131648 0 0)
(0.131765 0 0)
(0.131657 0 0)
(0.131771 0 0)
(0.131667 0 0)
(0.131778 0 0)
(0.131679 0 0)
(0.131786 0 0)
(0.131693 0 0)
(0.131797 0 0)
(0.131708 0 0)
(0.131809 0 0)
(0.131725 0 0)
(0.131826 0 0)
(0.131741 0 0)
(0.131848 0 0)
(0.131753 0 0)
(0.131882 0 0)
(0.131755 0 0)
(0.131937 0 0)
(0.131742 0 0)
(0.132016 0 0)
(0.131723 0 0)
(0.132105 0 0)
(0.131737 0 0)
(0.13217 0 0)
(0.131834 0 0)
(0.132203 0 0)
(0.132007 0 0)
(0.132261 0 0)
(0.132183 0 0)
(0.132368 0 0)
(0.132332 0 0)
(0.132489 0 0)
(0.132455 0 0)
(0.132594 0 0)
(0.132553 0 0)
(0.132674 0 0)
(0.132629 0 0)
(0.132733 0 0)
(0.132686 0 0)
(0.132778 0 0)
(0.132733 0 0)
(0.132816 0 0)
(0.132776 0 0)
(0.132851 0 0)
(0.132817 0 0)
(0.132887 0 0)
(0.132859 0 0)
(0.132924 0 0)
(0.132902 0 0)
(0.132963 0 0)
(0.132947 0 0)
(0.133004 0 0)
(0.132993 0 0)
(0.133047 0 0)
(0.133041 0 0)
(0.133091 0 0)
(0.133091 0 0)
(0.133138 0 0)
(0.133141 0 0)
(0.133186 0 0)
(0.133193 0 0)
(0.133235 0 0)
(0.133246 0 0)
(0.133286 0 0)
(0.1333 0 0)
(0.133338 0 0)
(0.133355 0 0)
(0.13339 0 0)
(0.13341 0 0)
(0.133444 0 0)
(0.133465 0 0)
(0.133497 0 0)
(0.133521 0 0)
(0.133551 0 0)
(0.133577 0 0)
(0.133606 0 0)
(0.133632 0 0)
(0.13366 0 0)
(0.133687 0 0)
(0.133713 0 0)
(0.133742 0 0)
(0.133766 0 0)
(0.133795 0 0)
(0.133819 0 0)
(0.133848 0 0)
(0.13387 0 0)
(0.133899 0 0)
(0.13392 0 0)
(0.133949 0 0)
(0.133969 0 0)
(0.133998 0 0)
(0.134017 0 0)
(0.134044 0 0)
(0.134062 0 0)
(0.134089 0 0)
(0.134106 0 0)
(0.134131 0 0)
(0.134147 0 0)
(0.134172 0 0)
(0.134186 0 0)
(0.134209 0 0)
(0.134222 0 0)
(0.134245 0 0)
(0.134256 0 0)
(0.134277 0 0)
(0.134287 0 0)
(0.134306 0 0)
(0.134315 0 0)
(0.134333 0 0)
(0.13434 0 0)
(0.134356 0 0)
(0.134361 0 0)
(0.134376 0 0)
(0.134379 0 0)
(0.134393 0 0)
(0.134392 0 0)
(0.134407 0 0)
(0.134402 0 0)
(0.134417 0 0)
(0.134408 0 0)
(0.134422 0 0)
(0.134413 0 0)
(0.134423 0 0)
(0.134415 0 0)
(0.134422 0 0)
(0.134417 0 0)
(0.134424 0 0)
(0.134422 0 0)
(0.134429 0 0)
(0.134424 0 0)
(0.134415 0 0)
(0.134376 0 0)
(0.134318 0 0)
(0.134228 0 0)
(0.134133 0 0)
(0.13403 0 0)
(0.133946 0 0)
(0.133872 0 0)
(0.133822 0 0)
(0.133781 0 0)
(0.133756 0 0)
(0.133733 0 0)
(0.133719 0 0)
(0.133703 0 0)
(0.133693 0 0)
(0.133679 0 0)
(0.133668 0 0)
(0.133654 0 0)
(0.133642 0 0)
(0.133627 0 0)
(0.133614 0 0)
(0.133597 0 0)
(0.133583 0 0)
(0.133565 0 0)
(0.133549 0 0)
(0.13353 0 0)
(0.133513 0 0)
(0.133493 0 0)
(0.133475 0 0)
(0.133454 0 0)
(0.133435 0 0)
(0.133413 0 0)
(0.133392 0 0)
(0.13337 0 0)
(0.133348 0 0)
(0.133325 0 0)
(0.133303 0 0)
(0.133279 0 0)
(0.133256 0 0)
(0.133231 0 0)
(0.133207 0 0)
(0.133182 0 0)
(0.133158 0 0)
(0.133133 0 0)
(0.133108 0 0)
(0.133082 0 0)
(0.133057 0 0)
(0.133031 0 0)
(0.133006 0 0)
(0.13298 0 0)
(0.132954 0 0)
(0.132928 0 0)
(0.132902 0 0)
(0.132876 0 0)
(0.132851 0 0)
(0.132825 0 0)
(0.132799 0 0)
(0.132774 0 0)
(0.132749 0 0)
(0.132723 0 0)
(0.132698 0 0)
(0.132673 0 0)
(0.132649 0 0)
(0.132624 0 0)
(0.1326 0 0)
(0.132576 0 0)
(0.132552 0 0)
(0.132529 0 0)
(0.132505 0 0)
(0.132483 0 0)
(0.13246 0 0)
(0.132438 0 0)
(0.132416 0 0)
(0.132394 0 0)
(0.132373 0 0)
(0.132352 0 0)
(0.132332 0 0)
(0.132312 0 0)
(0.132292 0 0)
(0.132273 0 0)
(0.132254 0 0)
(0.132236 0 0)
(0.132218 0 0)
(0.1322 0 0)
(0.132183 0 0)
(0.132166 0 0)
(0.13215 0 0)
(0.132134 0 0)
(0.132118 0 0)
(0.132103 0 0)
(0.132088 0 0)
(0.132074 0 0)
(0.13206 0 0)
(0.132047 0 0)
(0.132034 0 0)
(0.132021 0 0)
(0.132009 0 0)
(0.131997 0 0)
(0.131985 0 0)
(0.131974 0 0)
(0.131963 0 0)
(0.131953 0 0)
(0.131943 0 0)
(0.131933 0 0)
(0.131924 0 0)
(0.131915 0 0)
(0.131907 0 0)
(0.131898 0 0)
(0.13189 0 0)
(0.131883 0 0)
(0.131875 0 0)
(0.131868 0 0)
(0.131862 0 0)
(0.131855 0 0)
(0.131849 0 0)
(0.131843 0 0)
(0.131837 0 0)
(0.131832 0 0)
(0.131827 0 0)
(0.131822 0 0)
(0.131817 0 0)
(0.131813 0 0)
(0.131808 0 0)
(0.131804 0 0)
(0.1318 0 0)
(0.131797 0 0)
(0.131793 0 0)
(0.13179 0 0)
(0.131787 0 0)
(0.131784 0 0)
(0.131781 0 0)
(0.131778 0 0)
(0.131776 0 0)
(0.131773 0 0)
(0.131771 0 0)
(0.131769 0 0)
(0.131767 0 0)
(0.131765 0 0)
(0.131763 0 0)
(0.131762 0 0)
(0.13176 0 0)
(0.131759 0 0)
(0.131757 0 0)
(0.131756 0 0)
(0.131755 0 0)
(0.131754 0 0)
(0.131752 0 0)
(0.131751 0 0)
(0.13175 0 0)
(0.13175 0 0)
(0.131749 0 0)
(0.131748 0 0)
(0.131747 0 0)
(0.131747 0 0)
(0.131746 0 0)
(0.131745 0 0)
(0.131745 0 0)
(0.131744 0 0)
(0.131744 0 0)
(0.131743 0 0)
(0.131743 0 0)
(0.131743 0 0)
(0.131742 0 0)
(0.131742 0 0)
(0.131742 0 0)
(0.131741 0 0)
(0.131741 0 0)
(0.131741 0 0)
(0.13174 0 0)
(0.13174 0 0)
(0.13174 0 0)
(0.13174 0 0)
(0.13174 0 0)
(0.13174 0 0)
(0.131739 0 0)
(0.131739 0 0)
(0.131739 0 0)
(0.131739 0 0)
(0.131739 0 0)
(0.131739 0 0)
(0.131739 0 0)
(0.131739 0 0)
(0.131739 0 0)
(0.131739 0 0)
(0.131739 0 0)
(0.131739 0 0)
(0.131738 0 0)
(0.131738 0 0)
(0.131738 0 0)
(0.131738 0 0)
(0.131738 0 0)
(0.131738 0 0)
(0.131738 0 0)
(0.131738 0 0)
(0.131738 0 0)
(0.131738 0 0)
(0.131738 0 0)
(0.131738 0 0)
(0.131738 0 0)
(0.131738 0 0)
(0.131738 0 0)
(0.131738 0 0)
(0.131738 0 0)
(0.131738 0 0)
(0.131738 0 0)
(0.131738 0 0)
(0.131738 0 0)
(0.131738 0 0)
(0.131738 0 0)
(0.131738 0 0)
(0.131738 0 0)
(0.131738 0 0)
(0.131738 0 0)
(0.131738 0 0)
(0.131738 0 0)
(0.131738 0 0)
(0.131738 0 0)
(0.131738 0 0)
(0.131738 0 0)
(0.131738 0 0)
(0.131738 0 0)
(0.131738 0 0)
(0.131738 0 0)
(0.131738 0 0)
(0.131738 0 0)
(0.131738 0 0)
(0.131738 0 0)
(0.131738 0 0)
(0.131738 0 0)
(0.131738 0 0)
(0.131738 0 0)
(0.131738 0 0)
(0.131738 0 0)
(0.131738 0 0)
(0.131738 0 0)
(0.131738 0 0)
(0.131738 0 0)
(0.131738 0 0)
(0.131738 0 0)
(0.131738 0 0)
(0.131738 0 0)
(0.131738 0 0)
(0.131738 0 0)
(0.131738 0 0)
(0.131738 0 0)
(0.131738 0 0)
(0.131738 0 0)
(0.131738 0 0)
(0.131738 0 0)
(0.131738 0 0)
(0.131738 0 0)
(0.131738 0 0)
(0.131738 0 0)
(0.131738 0 0)
(0.131738 0 0)
(0.131738 0 0)
(0.131738 0 0)
(0.131738 0 0)
(0.131738 0 0)
(0.131738 0 0)
(0.131738 0 0)
(0.131738 0 0)
(0.131738 0 0)
(0.131738 0 0)
(0.131738 0 0)
(0.131738 0 0)
(0.131738 0 0)
(0.131738 0 0)
(0.131738 0 0)
(0.131738 0 0)
(0.131738 0 0)
(0.131738 0 0)
(0.131738 0 0)
(0.131738 0 0)
(0.131738 0 0)
(0.131738 0 0)
(0.131738 0 0)
(0.131738 0 0)
(0.131738 0 0)
(0.131738 0 0)
(0.131738 0 0)
(0.131738 0 0)
(0.131738 0 0)
(0.131738 0 0)
(0.131738 0 0)
(0.131738 0 0)
(0.131738 0 0)
(0.131738 0 0)
(0.131738 0 0)
(0.131738 0 0)
(0.131738 0 0)
(0.131738 0 0)
(0.131738 0 0)
(0.131738 0 0)
(0.131738 0 0)
(0.131738 0 0)
(0.131738 0 0)
(0.131738 0 0)
(0.131738 0 0)
(0.131738 0 0)
(0.131738 0 0)
(0.131738 0 0)
(0.131738 0 0)
(0.131738 0 0)
(0.131738 0 0)
(0.131738 0 0)
(0.131738 0 0)
(0.131738 0 0)
(0.131738 0 0)
(0.131738 0 0)
(0.131738 0 0)
(0.131738 0 0)
(0.131738 0 0)
(0.131738 0 0)
(0.131738 0 0)
(0.131738 0 0)
(0.131738 0 0)
(0.131738 0 0)
(0.131738 0 0)
(0.131738 0 0)
(0.131738 0 0)
(0.131738 0 0)
(0.131738 0 0)
(0.131738 0 0)
(0.131738 0 0)
(0.131738 0 0)
(0.131738 0 0)
(0.131738 0 0)
(0.131738 0 0)
(0.131738 0 0)
(0.131738 0 0)
(0.131738 0 0)
(0.131738 0 0)
(0.131738 0 0)
(0.131738 0 0)
(0.131738 0 0)
(0.131738 0 0)
(0.131738 0 0)
(0.131738 0 0)
(0.131738 0 0)
(0.131738 0 0)
(0.131738 0 0)
(0.131738 0 0)
(0.131738 0 0)
(0.131738 0 0)
(0.131738 0 0)
(0.131738 0 0)
(0.131738 0 0)
(0.131738 0 0)
(0.131738 0 0)
(0.131738 0 0)
(0.131738 0 0)
(0.131738 0 0)
(0.131738 0 0)
(0.131738 0 0)
(0.131738 0 0)
(0.131738 0 0)
(0.131738 0 0)
(0.131738 0 0)
(0.131738 0 0)
(0.131738 0 0)
(0.131738 0 0)
(0.131738 0 0)
(0.131738 0 0)
(0.131738 0 0)
(0.131738 0 0)
(0.131738 0 0)
(0.131738 0 0)
(0.131738 0 0)
(0.131738 0 0)
(0.131738 0 0)
(0.131738 0 0)
(0.131738 0 0)
(0.131738 0 0)
(0.131738 0 0)
(0.131738 0 0)
(0.131738 0 0)
(0.131738 0 0)
(0.131738 0 0)
(0.131738 0 0)
(0.131738 0 0)
(0.131738 0 0)
(0.131738 0 0)
(0.131738 0 0)
(0.131738 0 0)
(0.131738 0 0)
(0.131738 0 0)
(0.131738 0 0)
(0.131738 0 0)
(0.131738 0 0)
(0.131738 0 0)
(0.131738 0 0)
(0.131738 0 0)
(0.131738 0 0)
(0.131738 0 0)
(0.131738 0 0)
(0.131738 0 0)
(0.131738 0 0)
(0.131738 0 0)
(0.131738 0 0)
(0.131738 0 0)
(0.131738 0 0)
(0.131738 0 0)
(0.131738 0 0)
(0.131738 0 0)
(0.131738 0 0)
(0.131738 0 0)
(0.131738 0 0)
(0.131738 0 0)
(0.131738 0 0)
(0.131738 0 0)
(0.131738 0 0)
(0.131738 0 0)
(0.131738 0 0)
(0.131738 0 0)
(0.131738 0 0)
(0.131738 0 0)
(0.131738 0 0)
(0.131738 0 0)
(0.131738 0 0)
(0.131738 0 0)
(0.131738 0 0)
(0.131738 0 0)
(0.131738 0 0)
(0.131738 0 0)
(0.131738 0 0)
(0.131738 0 0)
(0.131738 0 0)
(0.131738 0 0)
(0.131738 0 0)
(0.131738 0 0)
(0.131738 0 0)
(0.131738 0 0)
(0.131738 0 0)
(0.131738 0 0)
(0.131738 0 0)
(0.131738 0 0)
(0.131738 0 0)
(0.131738 0 0)
(0.131738 0 0)
(0.131738 0 0)
(0.131738 0 0)
(0.131738 0 0)
(0.131738 0 0)
(0.131738 0 0)
(0.131738 0 0)
(0.131738 0 0)
(0.131738 0 0)
(0.131738 0 0)
(0.131738 0 0)
(0.131738 0 0)
(0.131738 0 0)
(0.131738 0 0)
(0.131738 0 0)
(0.131738 0 0)
(0.131738 0 0)
(0.131738 0 0)
(0.131738 0 0)
(0.131738 0 0)
(0.131738 0 0)
(0.131738 0 0)
(0.131738 0 0)
(0.131738 0 0)
(0.131738 0 0)
(0.131738 0 0)
(0.131738 0 0)
(0.131738 0 0)
(0.131738 0 0)
(0.131738 0 0)
(0.131738 0 0)
(0.131738 0 0)
(0.131738 0 0)
(0.131738 0 0)
(0.131738 0 0)
(0.131738 0 0)
(0.131738 0 0)
(0.131738 0 0)
(0.131738 0 0)
(0.131738 0 0)
(0.131738 0 0)
(0.131738 0 0)
(0.131738 0 0)
(0.131738 0 0)
(0.131738 0 0)
(0.131738 0 0)
(0.131738 0 0)
(0.131738 0 0)
(0.131738 0 0)
(0.131738 0 0)
(0.131738 0 0)
(0.131738 0 0)
(0.131738 0 0)
(0.131738 0 0)
(0.131738 0 0)
(0.131738 0 0)
(0.131738 0 0)
(0.131738 0 0)
(0.131738 0 0)
(0.131738 0 0)
(0.131738 0 0)
(0.131738 0 0)
(0.131738 0 0)
(0.131738 0 0)
(0.131738 0 0)
(0.131738 0 0)
(0.131738 0 0)
(0.131738 0 0)
(0.131738 0 0)
(0.131738 0 0)
(0.131738 0 0)
(0.131738 0 0)
(0.131738 0 0)
(0.131738 0 0)
(0.131738 0 0)
(0.131738 0 0)
(0.131738 0 0)
(0.131738 0 0)
(0.131738 0 0)
(0.131738 0 0)
(0.131738 0 0)
(0.131738 0 0)
(0.131738 0 0)
(0.131738 0 0)
(0.131738 0 0)
(0.131738 0 0)
(0.131738 0 0)
(0.131738 0 0)
(0.131738 0 0)
(0.131738 0 0)
(0.131738 0 0)
(0.131738 0 0)
(0.131738 0 0)
(0.131738 0 0)
(0.131738 0 0)
(0.131738 0 0)
(0.131738 0 0)
(0.131738 0 0)
(0.131738 0 0)
(0.131738 0 0)
(0.131738 0 0)
(0.131738 0 0)
(0.131738 0 0)
(0.131738 0 0)
(0.131738 0 0)
(0.131738 0 0)
(0.131738 0 0)
(0.131738 0 0)
(0.131738 0 0)
(0.131738 0 0)
(0.131738 0 0)
(0.131738 0 0)
(0.131738 0 0)
(0.131738 0 0)
(0.131738 0 0)
(0.131738 0 0)
(0.131738 0 0)
(0.131738 0 0)
(0.131738 0 0)
(0.131738 0 0)
(0.131738 0 0)
(0.131738 0 0)
(0.131738 0 0)
(0.131738 0 0)
(0.131738 0 0)
(0.131738 0 0)
(0.131738 0 0)
(0.131738 0 0)
(0.131738 0 0)
(0.131738 0 0)
(0.131738 0 0)
(0.131738 0 0)
(0.131738 0 0)
(0.131738 0 0)
(0.131738 0 0)
(0.131738 0 0)
(0.131738 0 0)
(0.131738 0 0)
(0.131738 0 0)
(0.131738 0 0)
(0.131738 0 0)
(0.131738 0 0)
(0.131738 0 0)
(0.131738 0 0)
(0.131738 0 0)
(0.131738 0 0)
(0.131738 0 0)
(0.131738 0 0)
(0.131738 0 0)
(0.131738 0 0)
(0.131738 0 0)
(0.131738 0 0)
(0.131738 0 0)
(0.131738 0 0)
(0.131738 0 0)
(0.131738 0 0)
(0.131738 0 0)
(0.131738 0 0)
(0.131738 0 0)
(0.131738 0 0)
(0.131738 0 0)
(0.131738 0 0)
(0.131738 0 0)
(0.131738 0 0)
(0.131738 0 0)
(0.131738 0 0)
(0.131738 0 0)
(0.131738 0 0)
(0.131738 0 0)
(0.131738 0 0)
(0.131738 0 0)
(0.131738 0 0)
(0.131738 0 0)
(0.131738 0 0)
(0.131738 0 0)
(0.131738 0 0)
(0.131738 0 0)
(0.131738 0 0)
(0.131738 0 0)
(0.131738 0 0)
(0.131738 0 0)
(0.131738 0 0)
(0.131738 0 0)
(0.131738 0 0)
(0.131738 0 0)
(0.131738 0 0)
(0.131738 0 0)
(0.131738 0 0)
(0.131738 0 0)
(0.131738 0 0)
(0.131738 0 0)
(0.131738 0 0)
(0.131738 0 0)
(0.131738 0 0)
(0.131738 0 0)
(0.131738 0 0)
(0.131738 0 0)
(0.131738 0 0)
(0.131738 0 0)
(0.131738 0 0)
(0.131738 0 0)
(0.131738 0 0)
(0.131738 0 0)
(0.131738 0 0)
(0.131738 0 0)
(0.131738 0 0)
(0.131738 0 0)
(0.131738 0 0)
(0.131738 0 0)
(0.131738 0 0)
(0.131738 0 0)
(0.131738 0 0)
(0.131738 0 0)
(0.131738 0 0)
(0.131738 0 0)
(0.131738 0 0)
(0.131738 0 0)
(0.131738 0 0)
(0.131738 0 0)
(0.131738 0 0)
(0.131738 0 0)
(0.131738 0 0)
(0.131738 0 0)
(0.131738 0 0)
(0.131738 0 0)
(0.131738 0 0)
(0.131738 0 0)
(0.131738 0 0)
(0.131738 0 0)
(0.131738 0 0)
(0.131738 0 0)
(0.131738 0 0)
(0.131738 0 0)
(0.131738 0 0)
(0.131738 0 0)
(0.131738 0 0)
(0.131738 0 0)
(0.131738 0 0)
(0.131738 0 0)
(0.131738 0 0)
(0.131738 0 0)
(0.131738 0 0)
(0.131738 0 0)
(0.131738 0 0)
(0.131738 0 0)
(0.131738 0 0)
(0.131738 0 0)
(0.131738 0 0)
(0.131738 0 0)
(0.131738 0 0)
(0.131738 0 0)
(0.131738 0 0)
(0.131738 0 0)
(0.131738 0 0)
(0.131738 0 0)
(0.131738 0 0)
(0.131738 0 0)
(0.131738 0 0)
(0.131738 0 0)
(0.131738 0 0)
(0.131738 0 0)
(0.131738 0 0)
(0.131738 0 0)
(0.131738 0 0)
(0.131738 0 0)
(0.131738 0 0)
(0.131738 0 0)
(0.131738 0 0)
(0.131738 0 0)
(0.131738 0 0)
(0.131738 0 0)
(0.131738 0 0)
(0.131738 0 0)
(0.131738 0 0)
(0.131738 0 0)
(0.131738 0 0)
(0.131738 0 0)
(0.131738 0 0)
(0.131738 0 0)
(0.131738 0 0)
(0.131738 0 0)
(0.131738 0 0)
(0.131738 0 0)
(0.131738 0 0)
(0.131738 0 0)
(0.131738 0 0)
(0.131738 0 0)
(0.131738 0 0)
(0.131738 0 0)
(0.131737 0 0)
(0.131739 0 0)
(0.131737 0 0)
(0.131739 0 0)
(0.131737 0 0)
(0.131739 0 0)
(0.131737 0 0)
(0.131739 0 0)
(0.131737 0 0)
(0.131739 0 0)
(0.131737 0 0)
(0.131739 0 0)
(0.131737 0 0)
(0.131739 0 0)
(0.131737 0 0)
(0.131739 0 0)
(0.131736 0 0)
(0.13174 0 0)
(0.131736 0 0)
(0.13174 0 0)
(0.131736 0 0)
(0.13174 0 0)
(0.131735 0 0)
(0.13174 0 0)
(0.131735 0 0)
(0.131741 0 0)
(0.131735 0 0)
(0.131741 0 0)
(0.131734 0 0)
(0.131742 0 0)
(0.131734 0 0)
(0.131742 0 0)
(0.131733 0 0)
(0.131742 0 0)
(0.131733 0 0)
(0.131743 0 0)
(0.131732 0 0)
(0.131743 0 0)
(0.131731 0 0)
(0.131744 0 0)
(0.13173 0 0)
(0.131745 0 0)
(0.131729 0 0)
(0.131745 0 0)
(0.131728 0 0)
(0.131746 0 0)
(0.131727 0 0)
(0.131747 0 0)
(0.131726 0 0)
(0.131748 0 0)
(0.131725 0 0)
(0.131749 0 0)
(0.131723 0 0)
(0.13175 0 0)
(0.131722 0 0)
(0.131751 0 0)
(0.13172 0 0)
(0.131752 0 0)
(0.131718 0 0)
(0.131753 0 0)
(0.131717 0 0)
(0.131754 0 0)
(0.131715 0 0)
(0.131755 0 0)
(0.131712 0 0)
(0.131756 0 0)
(0.13171 0 0)
(0.131757 0 0)
(0.131708 0 0)
)
;

boundaryField
{
    topWall
    {
        type            empty;
    }
    bottomWall
    {
        type            empty;
    }
    leftAndRight_half1
    {
        type            cyclic;
    }
    leftAndRight_half0
    {
        type            cyclic;
    }
    frontAndBack
    {
        type            empty;
    }
}


// ************************************************************************* //
