/*--------------------------------*- C++ -*----------------------------------*\
  =========                 |
  \\      /  F ield         | OpenFOAM: The Open Source CFD Toolbox
   \\    /   O peration     | Website:  https://openfoam.org
    \\  /    A nd           | Version:  9
     \\/     M anipulation  |
\*---------------------------------------------------------------------------*/
FoamFile
{
    format      ascii;
    class       volScalarField;
    location    "0.75";
    object      f_2;
}
// * * * * * * * * * * * * * * * * * * * * * * * * * * * * * * * * * * * * * //

dimensions      [1 -3 0 0 0 0 0];

internalField   nonuniform List<scalar> 
1000
(
164.481
164.481
164.481
164.481
164.481
164.481
164.481
164.481
164.481
164.481
164.481
164.481
164.481
164.481
164.481
164.481
164.481
164.481
164.481
164.481
164.481
164.481
164.481
164.481
164.481
164.481
164.481
164.481
164.481
164.481
164.481
164.481
164.481
164.481
164.481
164.481
164.481
164.481
164.481
164.481
164.481
164.481
164.481
164.481
164.481
164.481
164.481
164.481
164.481
164.481
164.481
164.481
164.481
164.481
164.481
164.481
164.481
164.481
164.481
164.481
164.481
164.481
164.481
164.481
164.481
164.481
164.481
164.481
164.481
164.481
164.481
164.481
164.481
164.481
164.481
164.481
164.481
164.481
164.481
164.481
164.481
164.481
164.481
164.481
164.481
164.481
164.481
164.481
164.481
164.481
164.481
164.481
164.481
164.481
164.481
164.481
164.481
164.481
164.481
164.481
164.481
164.481
164.481
164.481
164.481
164.481
164.481
164.481
164.481
164.481
164.481
164.481
164.481
164.481
164.481
164.481
164.481
164.481
164.481
164.481
164.481
164.481
164.481
164.481
164.481
164.481
164.481
164.481
164.481
164.481
164.481
164.481
164.481
164.481
164.481
164.481
164.481
164.481
164.481
164.481
164.481
164.48
164.48
164.48
164.48
164.48
164.48
164.48
164.48
164.48
164.48
164.48
164.48
164.48
164.48
164.48
164.48
164.48
164.48
164.48
164.48
164.479
164.479
164.479
164.479
164.479
164.479
164.479
164.479
164.479
164.479
164.479
164.478
164.478
164.478
164.478
164.478
164.478
164.478
164.477
164.477
164.477
164.477
164.477
164.477
164.476
164.476
164.476
164.476
164.476
164.475
164.475
164.475
164.475
164.474
164.474
164.474
164.474
164.473
164.473
164.473
164.472
164.472
164.472
164.471
164.471
164.47
164.47
164.47
164.469
164.469
164.468
164.468
164.467
164.467
164.466
164.466
164.465
164.464
164.464
164.463
164.462
164.462
164.461
164.46
164.46
164.459
164.458
164.457
164.456
164.455
164.455
164.454
164.453
164.452
164.451
164.45
164.448
164.447
164.446
164.445
164.444
164.443
164.441
164.44
164.439
164.437
164.436
164.434
164.433
164.431
164.429
164.428
164.426
164.424
164.423
164.421
164.419
164.417
164.415
164.413
164.411
164.408
164.406
164.404
164.402
164.399
164.397
164.394
164.391
164.389
164.386
164.383
164.38
164.377
164.374
164.371
164.368
164.365
164.362
164.358
164.355
164.351
164.348
164.344
164.34
164.336
164.332
164.328
164.324
164.32
164.315
164.311
164.306
164.301
164.297
164.292
164.287
164.282
164.277
164.271
164.266
164.26
164.255
164.249
164.243
164.237
164.231
164.225
164.219
164.212
164.206
164.199
164.192
164.185
164.178
164.171
164.164
164.156
164.148
164.141
164.133
164.125
164.117
164.108
164.1
164.091
164.082
164.073
164.064
164.055
164.046
164.036
164.027
164.017
164.007
163.996
163.986
163.976
163.965
163.954
163.943
163.932
163.921
163.909
163.898
163.886
163.874
163.862
163.849
163.837
163.824
163.811
163.798
163.785
163.771
163.758
163.744
163.73
163.716
163.701
163.687
163.672
163.657
163.642
163.627
163.611
163.596
163.58
163.564
163.547
163.531
163.514
163.497
163.48
163.463
163.446
163.428
163.41
163.392
163.374
163.356
163.337
163.318
163.299
163.28
163.261
163.241
163.221
163.201
163.181
163.161
163.14
163.119
163.098
163.077
163.056
163.034
163.012
162.99
162.968
162.945
162.923
162.9
162.877
162.854
162.83
162.807
162.783
162.759
162.735
162.711
162.686
162.661
162.636
162.611
162.586
162.56
162.534
162.508
162.482
162.456
162.429
162.403
162.376
162.349
162.321
162.294
162.266
162.238
162.21
162.182
162.154
162.125
162.096
162.067
162.038
162.009
161.979
161.95
161.92
161.89
161.86
161.829
161.799
161.768
161.737
161.706
161.675
161.643
161.611
161.58
161.548
161.516
161.483
161.451
161.418
161.385
161.352
161.319
161.286
161.253
161.219
161.185
161.151
161.117
161.083
161.049
161.014
160.979
160.945
160.91
160.874
160.839
160.804
160.768
160.732
160.697
160.661
160.624
160.588
160.552
160.515
160.478
160.441
160.404
160.367
160.33
160.293
160.255
160.217
160.18
160.142
160.104
160.065
160.027
159.989
159.95
159.911
159.873
159.834
159.795
159.755
159.716
159.677
159.637
159.598
159.558
159.518
159.478
159.438
159.398
159.357
159.317
159.276
159.236
159.195
159.154
159.113
159.072
159.031
158.99
158.948
158.907
158.865
158.824
158.782
158.74
158.698
158.656
158.614
158.572
158.529
158.487
158.444
158.402
158.359
158.316
158.273
158.23
158.187
158.144
158.101
158.058
158.015
157.971
157.928
157.884
157.84
157.797
157.753
157.709
157.665
157.621
157.577
157.533
157.488
157.444
157.4
157.355
157.311
157.266
157.221
157.177
157.132
157.087
157.042
156.997
156.952
156.907
156.862
156.817
156.771
156.726
156.681
156.635
156.59
156.544
156.499
156.453
156.407
156.361
156.316
156.27
156.224
156.178
156.132
156.086
156.04
155.994
155.947
155.901
155.855
155.809
155.762
155.716
155.669
155.623
155.576
155.53
155.483
155.437
155.39
155.343
155.297
155.25
155.203
155.156
155.11
155.063
155.016
154.969
154.922
154.875
154.828
154.781
154.734
154.687
154.64
154.593
154.546
154.499
154.452
154.405
154.358
154.31
154.263
154.216
154.169
154.122
154.075
154.028
153.98
153.933
153.886
153.839
153.792
153.745
153.698
153.65
153.603
153.556
153.509
153.462
153.415
153.368
153.321
153.274
153.227
153.18
153.134
153.087
153.04
152.993
152.947
152.9
152.853
152.807
152.76
152.714
152.668
152.622
152.575
152.529
152.483
152.437
152.391
152.346
152.3
152.255
152.209
152.164
152.119
152.074
152.029
151.984
151.939
151.895
151.85
151.806
151.762
151.718
151.675
151.631
151.588
151.545
151.503
151.46
151.418
151.376
151.334
151.293
151.251
151.211
151.17
151.13
151.09
151.05
151.011
150.973
150.934
150.896
150.859
150.822
150.786
150.75
150.714
150.679
150.645
150.611
150.578
150.546
150.514
150.483
150.453
150.423
150.394
150.367
150.34
150.313
150.288
150.264
150.241
150.219
150.198
150.178
150.159
150.141
150.125
150.11
150.097
150.085
150.074
150.065
150.058
150.052
150.048
150.046
150.046
150.047
150.051
150.056
150.064
150.074
150.087
150.101
150.118
150.138
150.16
150.185
150.213
150.244
150.277
150.314
150.353
150.396
150.442
150.492
150.545
150.601
150.661
150.725
150.792
150.863
150.938
151.017
151.1
151.187
151.278
151.374
151.473
151.577
151.685
151.797
151.913
152.034
152.159
152.288
152.421
152.559
152.7
152.845
152.995
153.148
153.305
153.466
153.63
153.798
153.968
154.142
154.319
154.499
154.681
154.865
155.052
155.24
155.431
155.622
155.815
156.009
156.204
156.4
156.595
156.791
156.986
157.181
157.376
157.569
157.762
157.953
158.142
158.33
158.516
158.699
158.88
159.059
159.235
159.408
159.579
159.746
159.91
160.071
160.228
160.382
160.532
160.679
160.822
160.962
161.098
161.23
161.358
161.483
161.604
161.721
161.835
161.945
162.051
162.154
162.254
162.349
162.442
162.531
162.617
162.7
162.78
162.857
162.931
163.001
163.07
163.135
163.198
163.258
163.315
163.371
163.424
163.474
163.523
163.569
163.614
163.656
163.697
163.735
163.772
163.808
163.841
163.873
163.904
163.933
163.961
163.988
164.013
164.037
164.06
164.082
164.102
164.122
164.141
164.159
164.176
164.192
164.207
164.222
164.235
164.249
164.261
164.273
164.284
164.295
164.305
164.314
164.324
164.332
164.34
164.348
164.355
164.362
164.369
164.375
164.381
164.387
164.392
164.397
164.402
164.406
164.41
164.414
164.418
164.422
164.425
164.428
164.431
164.434
164.437
164.44
164.442
164.444
164.446
164.448
164.45
164.452
164.454
164.455
164.457
164.458
164.46
164.461
164.462
164.463
164.464
164.465
164.466
164.467
164.468
164.469
164.47
164.47
164.471
164.472
164.472
164.473
164.473
164.474
164.474
164.475
164.475
164.475
164.476
164.476
164.476
164.477
164.477
164.477
164.477
164.478
164.478
164.478
164.478
164.479
164.479
164.479
164.479
164.479
164.479
164.479
164.479
164.48
164.48
164.48
164.48
164.48
164.48
164.48
164.48
164.48
164.48
164.48
164.48
164.48
164.481
164.481
164.481
164.481
164.481
164.481
164.481
164.481
164.481
164.481
164.481
164.481
164.481
164.481
164.481
164.481
164.481
164.481
164.481
164.481
164.481
164.481
)
;

boundaryField
{
    topWall
    {
        type            empty;
    }
    bottomWall
    {
        type            empty;
    }
    leftAndRight_half1
    {
        type            cyclic;
    }
    leftAndRight_half0
    {
        type            cyclic;
    }
    frontAndBack
    {
        type            empty;
    }
}


// ************************************************************************* //
