/*--------------------------------*- C++ -*----------------------------------*\
  =========                 |
  \\      /  F ield         | OpenFOAM: The Open Source CFD Toolbox
   \\    /   O peration     | Website:  https://openfoam.org
    \\  /    A nd           | Version:  9
     \\/     M anipulation  |
\*---------------------------------------------------------------------------*/
FoamFile
{
    format      ascii;
    class       volScalarField;
    location    "0.75";
    object      p;
}
// * * * * * * * * * * * * * * * * * * * * * * * * * * * * * * * * * * * * * //

dimensions      [1 -1 -2 0 0 0 0];

internalField   nonuniform List<scalar> 
1000
(
100097
100097
100097
100097
100097
100097
100097
100097
100097
100097
100097
100097
100097
100097
100097
100097
100097
100097
100097
100097
100097
100097
100097
100097
100097
100097
100097
100097
100097
100097
100097
100097
100097
100097
100097
100097
100097
100097
100097
100097
100097
100097
100097
100097
100097
100097
100097
100097
100097
100097
100097
100097
100097
100097
100097
100097
100097
100097
100097
100097
100097
100097
100097
100097
100097
100097
100097
100097
100097
100097
100097
100097
100097
100097
100097
100097
100097
100097
100097
100097
100097
100097
100097
100097
100097
100097
100097
100097
100097
100097
100097
100097
100097
100097
100097
100097
100097
100097
100097
100097
100097
100097
100097
100097
100097
100097
100097
100097
100097
100097
100097
100097
100097
100097
100097
100097
100097
100097
100097
100097
100097
100097
100097
100097
100097
100097
100097
100097
100097
100097
100097
100097
100097
100097
100096
100096
100096
100096
100096
100096
100096
100096
100096
100096
100096
100096
100096
100096
100096
100096
100096
100096
100096
100096
100096
100096
100096
100096
100096
100096
100096
100096
100096
100096
100096
100096
100096
100096
100096
100095
100095
100095
100095
100095
100095
100095
100095
100095
100095
100095
100095
100095
100095
100095
100094
100094
100094
100094
100094
100094
100094
100094
100094
100094
100093
100093
100093
100093
100093
100093
100093
100092
100092
100092
100092
100092
100092
100091
100091
100091
100091
100091
100091
100090
100090
100090
100090
100089
100089
100089
100089
100088
100088
100088
100088
100087
100087
100087
100086
100086
100086
100085
100085
100085
100084
100084
100084
100083
100083
100082
100082
100082
100081
100081
100080
100080
100079
100079
100078
100078
100077
100077
100076
100076
100075
100074
100074
100073
100073
100072
100071
100071
100070
100069
100069
100068
100067
100067
100066
100065
100064
100063
100063
100062
100061
100060
100059
100059
100058
100057
100056
100055
100054
100053
100052
100051
100050
100049
100048
100047
100046
100045
100044
100043
100042
100041
100040
100039
100037
100036
100035
100034
100033
100032
100030
100029
100028
100027
100025
100024
100023
100022
100020
100019
100018
100016
100015
100014
100012
100011
100010
100008
100007
100006
100004
100003
100001
100000
99998.6
99997.2
99995.8
99994.4
99993
99991.6
99990.2
99988.8
99987.4
99986
99984.6
99983.2
99981.8
99980.4
99979
99977.6
99976.2
99974.9
99973.5
99972.1
99970.8
99969.4
99968.1
99966.8
99965.5
99964.2
99962.9
99961.6
99960.3
99959.1
99957.9
99956.6
99955.4
99954.2
99953.1
99951.9
99950.8
99949.7
99948.6
99947.6
99946.5
99945.5
99944.5
99943.5
99942.6
99941.7
99940.8
99939.9
99939.1
99938.3
99937.6
99936.8
99936.1
99935.5
99934.8
99934.2
99933.7
99933.2
99932.7
99932.2
99931.8
99931.5
99931.2
99930.9
99930.7
99930.5
99930.3
99930.2
99930.2
99930.2
99930.2
99930.3
99930.5
99930.7
99930.9
99931.2
99931.6
99932
99932.5
99933
99933.6
99934.3
99935
99935.7
99936.6
99937.5
99938.4
99939.4
99940.5
99941.7
99942.9
99944.2
99945.5
99946.9
99948.4
99950
99951.6
99953.3
99955.1
99957
99958.9
99960.9
99963
99965.1
99967.4
99969.7
99972.1
99974.5
99977.1
99979.7
99982.4
99985.3
99988.1
99991.1
99994.2
99997.3
100001
100004
100007
100011
100014
100018
100022
100026
100030
100034
100038
100042
100046
100051
100055
100060
100065
100069
100074
100079
100084
100090
100095
100100
100106
100112
100117
100123
100129
100135
100141
100147
100154
100160
100167
100174
100180
100187
100194
100201
100209
100216
100223
100231
100239
100246
100254
100262
100271
100279
100287
100296
100304
100313
100322
100331
100340
100349
100358
100368
100377
100387
100397
100407
100417
100427
100437
100447
100458
100468
100479
100490
100501
100512
100523
100535
100546
100558
100570
100582
100594
100606
100618
100630
100643
100655
100668
100681
100694
100707
100721
100734
100747
100761
100775
100789
100803
100817
100831
100846
100860
100875
100890
100905
100920
100935
100950
100966
100982
100997
101013
101029
101045
101062
101078
101095
101111
101128
101145
101162
101179
101197
101214
101232
101250
101267
101285
101304
101322
101340
101359
101378
101396
101415
101435
101454
101473
101493
101512
101532
101552
101572
101592
101613
101633
101654
101675
101695
101716
101738
101759
101780
101802
101824
101846
101868
101890
101912
101934
101957
101980
102002
102025
102048
102072
102095
102119
102142
102166
102190
102214
102238
102263
102287
102312
102336
102361
102386
102411
102437
102462
102488
102514
102539
102565
102592
102618
102644
102671
102697
102724
102751
102778
102806
102833
102861
102888
102916
102944
102972
103000
103028
103057
103086
103114
103143
103172
103201
103231
103260
103290
103319
103349
103379
103409
103439
103470
103500
103531
103562
103592
103623
103655
103686
103717
103749
103780
103812
103844
103876
103908
103940
103973
104005
104038
104071
104104
104137
104170
104203
104236
104270
104303
104337
104371
104404
104438
104473
104507
104541
104575
104610
104644
104679
104714
104749
104783
104818
104853
104889
104924
104959
104994
105030
105065
105101
105136
105172
105207
105243
105278
105314
105350
105385
105421
105456
105492
105528
105563
105599
105634
105669
105704
105740
105775
105809
105844
105879
105913
105947
105981
106015
106049
106082
106115
106148
106180
106212
106244
106275
106306
106336
106366
106395
106423
106451
106479
106505
106531
106556
106580
106603
106626
106647
106667
106686
106704
106720
106736
106749
106762
106773
106782
106789
106795
106799
106801
106801
106799
106794
106788
106779
106767
106754
106737
106718
106696
106672
106644
106614
106580
106544
106505
106462
106417
106368
106316
106262
106204
106143
106078
106011
105941
105868
105793
105714
105633
105549
105463
105375
105284
105192
105097
105001
104904
104805
104704
104603
104501
104398
104294
104190
104086
103982
103878
103775
103672
103569
103467
103366
103266
103167
103070
102974
102879
102786
102694
102604
102516
102430
102346
102263
102183
102104
102028
101953
101881
101811
101742
101676
101612
101550
101490
101431
101375
101321
101268
101218
101169
101122
101076
101033
100991
100950
100912
100875
100839
100804
100772
100740
100710
100681
100653
100627
100601
100577
100554
100531
100510
100490
100471
100452
100435
100418
100402
100386
100372
100358
100345
100332
100320
100308
100298
100287
100277
100268
100259
100251
100242
100235
100228
100221
100214
100208
100202
100196
100191
100186
100181
100176
100172
100168
100164
100160
100157
100154
100151
100148
100145
100142
100140
100137
100135
100133
100131
100129
100127
100125
100124
100122
100121
100119
100118
100117
100116
100115
100114
100113
100112
100111
100110
100109
100108
100108
100107
100107
100106
100105
100105
100104
100104
100104
100103
100103
100102
100102
100102
100101
100101
100101
100101
100100
100100
100100
100100
100100
100099
100099
100099
100099
100099
100099
100099
100098
100098
100098
100098
100098
100098
100098
100098
100098
100098
100098
100098
100098
100098
100097
100097
100097
100097
100097
100097
100097
100097
100097
100097
100097
100097
100097
100097
100097
100097
100097
100097
100097
)
;

boundaryField
{
    topWall
    {
        type            empty;
    }
    bottomWall
    {
        type            empty;
    }
    leftAndRight_half1
    {
        type            cyclic;
    }
    leftAndRight_half0
    {
        type            cyclic;
    }
    frontAndBack
    {
        type            empty;
    }
}


// ************************************************************************* //
