/*--------------------------------*- C++ -*----------------------------------*\
  =========                 |
  \\      /  F ield         | OpenFOAM: The Open Source CFD Toolbox
   \\    /   O peration     | Website:  https://openfoam.org
    \\  /    A nd           | Version:  9
     \\/     M anipulation  |
\*---------------------------------------------------------------------------*/
FoamFile
{
    format      ascii;
    class       volVectorField;
    location    "0.75";
    object      U;
}
// * * * * * * * * * * * * * * * * * * * * * * * * * * * * * * * * * * * * * //

dimensions      [0 1 -1 0 0 0 0];

internalField   nonuniform List<vector> 
1000
(
(0.440021 0 0)
(0.440019 0 0)
(0.440017 0 0)
(0.440015 0 0)
(0.440013 0 0)
(0.440011 0 0)
(0.44001 0 0)
(0.440008 0 0)
(0.440007 0 0)
(0.440006 0 0)
(0.440005 0 0)
(0.440004 0 0)
(0.440003 0 0)
(0.440002 0 0)
(0.440001 0 0)
(0.44 0 0)
(0.439999 0 0)
(0.439999 0 0)
(0.439998 0 0)
(0.439997 0 0)
(0.439997 0 0)
(0.439996 0 0)
(0.439996 0 0)
(0.439995 0 0)
(0.439995 0 0)
(0.439994 0 0)
(0.439994 0 0)
(0.439994 0 0)
(0.439993 0 0)
(0.439993 0 0)
(0.439993 0 0)
(0.439993 0 0)
(0.439992 0 0)
(0.439992 0 0)
(0.439992 0 0)
(0.439992 0 0)
(0.439992 0 0)
(0.439992 0 0)
(0.439991 0 0)
(0.439991 0 0)
(0.439991 0 0)
(0.439991 0 0)
(0.439991 0 0)
(0.439991 0 0)
(0.439991 0 0)
(0.439991 0 0)
(0.439991 0 0)
(0.439991 0 0)
(0.439991 0 0)
(0.439991 0 0)
(0.439991 0 0)
(0.439991 0 0)
(0.439991 0 0)
(0.439991 0 0)
(0.439991 0 0)
(0.439991 0 0)
(0.439991 0 0)
(0.439991 0 0)
(0.439991 0 0)
(0.439991 0 0)
(0.439991 0 0)
(0.439991 0 0)
(0.439991 0 0)
(0.439992 0 0)
(0.439992 0 0)
(0.439992 0 0)
(0.439992 0 0)
(0.439992 0 0)
(0.439992 0 0)
(0.439992 0 0)
(0.439992 0 0)
(0.439993 0 0)
(0.439993 0 0)
(0.439993 0 0)
(0.439993 0 0)
(0.439994 0 0)
(0.439994 0 0)
(0.439994 0 0)
(0.439994 0 0)
(0.439995 0 0)
(0.439995 0 0)
(0.439995 0 0)
(0.439996 0 0)
(0.439996 0 0)
(0.439996 0 0)
(0.439997 0 0)
(0.439997 0 0)
(0.439998 0 0)
(0.439998 0 0)
(0.439999 0 0)
(0.439999 0 0)
(0.44 0 0)
(0.44 0 0)
(0.440001 0 0)
(0.440002 0 0)
(0.440002 0 0)
(0.440003 0 0)
(0.440004 0 0)
(0.440005 0 0)
(0.440005 0 0)
(0.440006 0 0)
(0.440007 0 0)
(0.440008 0 0)
(0.440009 0 0)
(0.44001 0 0)
(0.440011 0 0)
(0.440013 0 0)
(0.440014 0 0)
(0.440015 0 0)
(0.440017 0 0)
(0.440018 0 0)
(0.440019 0 0)
(0.440021 0 0)
(0.440023 0 0)
(0.440025 0 0)
(0.440026 0 0)
(0.440028 0 0)
(0.44003 0 0)
(0.440032 0 0)
(0.440035 0 0)
(0.440037 0 0)
(0.440039 0 0)
(0.440042 0 0)
(0.440045 0 0)
(0.440047 0 0)
(0.44005 0 0)
(0.440054 0 0)
(0.440057 0 0)
(0.44006 0 0)
(0.440064 0 0)
(0.440067 0 0)
(0.440071 0 0)
(0.440075 0 0)
(0.44008 0 0)
(0.440084 0 0)
(0.440089 0 0)
(0.440093 0 0)
(0.440099 0 0)
(0.440104 0 0)
(0.440109 0 0)
(0.440115 0 0)
(0.440121 0 0)
(0.440128 0 0)
(0.440134 0 0)
(0.440141 0 0)
(0.440148 0 0)
(0.440156 0 0)
(0.440164 0 0)
(0.440172 0 0)
(0.440181 0 0)
(0.44019 0 0)
(0.440199 0 0)
(0.440209 0 0)
(0.440219 0 0)
(0.440229 0 0)
(0.440241 0 0)
(0.440252 0 0)
(0.440264 0 0)
(0.440277 0 0)
(0.44029 0 0)
(0.440303 0 0)
(0.440318 0 0)
(0.440332 0 0)
(0.440348 0 0)
(0.440364 0 0)
(0.440381 0 0)
(0.440398 0 0)
(0.440416 0 0)
(0.440435 0 0)
(0.440455 0 0)
(0.440475 0 0)
(0.440496 0 0)
(0.440518 0 0)
(0.440541 0 0)
(0.440565 0 0)
(0.44059 0 0)
(0.440616 0 0)
(0.440643 0 0)
(0.440671 0 0)
(0.4407 0 0)
(0.44073 0 0)
(0.440762 0 0)
(0.440794 0 0)
(0.440828 0 0)
(0.440863 0 0)
(0.4409 0 0)
(0.440938 0 0)
(0.440977 0 0)
(0.441018 0 0)
(0.44106 0 0)
(0.441104 0 0)
(0.44115 0 0)
(0.441197 0 0)
(0.441247 0 0)
(0.441297 0 0)
(0.44135 0 0)
(0.441405 0 0)
(0.441462 0 0)
(0.441521 0 0)
(0.441582 0 0)
(0.441645 0 0)
(0.44171 0 0)
(0.441778 0 0)
(0.441848 0 0)
(0.441921 0 0)
(0.441996 0 0)
(0.442074 0 0)
(0.442155 0 0)
(0.442238 0 0)
(0.442324 0 0)
(0.442414 0 0)
(0.442506 0 0)
(0.442602 0 0)
(0.4427 0 0)
(0.442803 0 0)
(0.442908 0 0)
(0.443017 0 0)
(0.44313 0 0)
(0.443247 0 0)
(0.443367 0 0)
(0.443492 0 0)
(0.44362 0 0)
(0.443753 0 0)
(0.44389 0 0)
(0.444032 0 0)
(0.444178 0 0)
(0.444329 0 0)
(0.444485 0 0)
(0.444645 0 0)
(0.444811 0 0)
(0.444982 0 0)
(0.445158 0 0)
(0.44534 0 0)
(0.445527 0 0)
(0.445721 0 0)
(0.44592 0 0)
(0.446125 0 0)
(0.446337 0 0)
(0.446555 0 0)
(0.446779 0 0)
(0.447011 0 0)
(0.447249 0 0)
(0.447494 0 0)
(0.447747 0 0)
(0.448007 0 0)
(0.448274 0 0)
(0.448549 0 0)
(0.448833 0 0)
(0.449124 0 0)
(0.449424 0 0)
(0.449732 0 0)
(0.450049 0 0)
(0.450375 0 0)
(0.450711 0 0)
(0.451055 0 0)
(0.451409 0 0)
(0.451773 0 0)
(0.452147 0 0)
(0.452531 0 0)
(0.452926 0 0)
(0.453331 0 0)
(0.453747 0 0)
(0.454174 0 0)
(0.454612 0 0)
(0.455062 0 0)
(0.455524 0 0)
(0.455998 0 0)
(0.456484 0 0)
(0.456982 0 0)
(0.457494 0 0)
(0.458018 0 0)
(0.458556 0 0)
(0.459107 0 0)
(0.459673 0 0)
(0.460252 0 0)
(0.460845 0 0)
(0.461453 0 0)
(0.462076 0 0)
(0.462714 0 0)
(0.463368 0 0)
(0.464037 0 0)
(0.464722 0 0)
(0.465424 0 0)
(0.466142 0 0)
(0.466877 0 0)
(0.467628 0 0)
(0.468398 0 0)
(0.469185 0 0)
(0.46999 0 0)
(0.470813 0 0)
(0.471654 0 0)
(0.472515 0 0)
(0.473395 0 0)
(0.474294 0 0)
(0.475213 0 0)
(0.476152 0 0)
(0.477111 0 0)
(0.478091 0 0)
(0.479092 0 0)
(0.480114 0 0)
(0.481158 0 0)
(0.482224 0 0)
(0.483312 0 0)
(0.484422 0 0)
(0.485556 0 0)
(0.486712 0 0)
(0.487892 0 0)
(0.489095 0 0)
(0.490323 0 0)
(0.491575 0 0)
(0.492851 0 0)
(0.494153 0 0)
(0.49548 0 0)
(0.496832 0 0)
(0.498211 0 0)
(0.499615 0 0)
(0.501046 0 0)
(0.502504 0 0)
(0.503989 0 0)
(0.505502 0 0)
(0.507042 0 0)
(0.508611 0 0)
(0.510207 0 0)
(0.511832 0 0)
(0.513487 0 0)
(0.51517 0 0)
(0.516883 0 0)
(0.518626 0 0)
(0.520399 0 0)
(0.522202 0 0)
(0.524036 0 0)
(0.525901 0 0)
(0.527797 0 0)
(0.529725 0 0)
(0.531685 0 0)
(0.533676 0 0)
(0.5357 0 0)
(0.537757 0 0)
(0.539847 0 0)
(0.541969 0 0)
(0.544125 0 0)
(0.546315 0 0)
(0.548539 0 0)
(0.550797 0 0)
(0.553089 0 0)
(0.555416 0 0)
(0.557778 0 0)
(0.560175 0 0)
(0.562607 0 0)
(0.565075 0 0)
(0.567579 0 0)
(0.570119 0 0)
(0.572695 0 0)
(0.575308 0 0)
(0.577957 0 0)
(0.580644 0 0)
(0.583367 0 0)
(0.586128 0 0)
(0.588926 0 0)
(0.591762 0 0)
(0.594636 0 0)
(0.597547 0 0)
(0.600497 0 0)
(0.603486 0 0)
(0.606513 0 0)
(0.609579 0 0)
(0.612683 0 0)
(0.615827 0 0)
(0.61901 0 0)
(0.622232 0 0)
(0.625494 0 0)
(0.628795 0 0)
(0.632136 0 0)
(0.635517 0 0)
(0.638938 0 0)
(0.642399 0 0)
(0.6459 0 0)
(0.649441 0 0)
(0.653023 0 0)
(0.656646 0 0)
(0.660309 0 0)
(0.664012 0 0)
(0.667757 0 0)
(0.671542 0 0)
(0.675369 0 0)
(0.679236 0 0)
(0.683144 0 0)
(0.687094 0 0)
(0.691084 0 0)
(0.695116 0 0)
(0.699189 0 0)
(0.703303 0 0)
(0.707459 0 0)
(0.711656 0 0)
(0.715895 0 0)
(0.720174 0 0)
(0.724496 0 0)
(0.728858 0 0)
(0.733262 0 0)
(0.737708 0 0)
(0.742195 0 0)
(0.746724 0 0)
(0.751293 0 0)
(0.755905 0 0)
(0.760557 0 0)
(0.765251 0 0)
(0.769987 0 0)
(0.774763 0 0)
(0.779581 0 0)
(0.784441 0 0)
(0.789341 0 0)
(0.794282 0 0)
(0.799265 0 0)
(0.804289 0 0)
(0.809353 0 0)
(0.814459 0 0)
(0.819605 0 0)
(0.824792 0 0)
(0.83002 0 0)
(0.835288 0 0)
(0.840597 0 0)
(0.845946 0 0)
(0.851336 0 0)
(0.856766 0 0)
(0.862236 0 0)
(0.867747 0 0)
(0.873297 0 0)
(0.878887 0 0)
(0.884517 0 0)
(0.890186 0 0)
(0.895895 0 0)
(0.901644 0 0)
(0.907431 0 0)
(0.913258 0 0)
(0.919124 0 0)
(0.925029 0 0)
(0.930973 0 0)
(0.936955 0 0)
(0.942976 0 0)
(0.949035 0 0)
(0.955133 0 0)
(0.961269 0 0)
(0.967442 0 0)
(0.973654 0 0)
(0.979903 0 0)
(0.986189 0 0)
(0.992513 0 0)
(0.998875 0 0)
(1.00527 0 0)
(1.01171 0 0)
(1.01818 0 0)
(1.02469 0 0)
(1.03123 0 0)
(1.03781 0 0)
(1.04443 0 0)
(1.05109 0 0)
(1.05777 0 0)
(1.0645 0 0)
(1.07126 0 0)
(1.07805 0 0)
(1.08488 0 0)
(1.09175 0 0)
(1.09865 0 0)
(1.10558 0 0)
(1.11255 0 0)
(1.11956 0 0)
(1.12659 0 0)
(1.13366 0 0)
(1.14077 0 0)
(1.14791 0 0)
(1.15508 0 0)
(1.16228 0 0)
(1.16952 0 0)
(1.17679 0 0)
(1.18409 0 0)
(1.19143 0 0)
(1.19879 0 0)
(1.20619 0 0)
(1.21362 0 0)
(1.22108 0 0)
(1.22858 0 0)
(1.2361 0 0)
(1.24366 0 0)
(1.25125 0 0)
(1.25886 0 0)
(1.26651 0 0)
(1.27419 0 0)
(1.2819 0 0)
(1.28964 0 0)
(1.2974 0 0)
(1.3052 0 0)
(1.31303 0 0)
(1.32088 0 0)
(1.32877 0 0)
(1.33668 0 0)
(1.34462 0 0)
(1.35259 0 0)
(1.36059 0 0)
(1.36862 0 0)
(1.37667 0 0)
(1.38475 0 0)
(1.39286 0 0)
(1.401 0 0)
(1.40916 0 0)
(1.41735 0 0)
(1.42557 0 0)
(1.43381 0 0)
(1.44208 0 0)
(1.45038 0 0)
(1.4587 0 0)
(1.46705 0 0)
(1.47542 0 0)
(1.48382 0 0)
(1.49225 0 0)
(1.5007 0 0)
(1.50917 0 0)
(1.51767 0 0)
(1.52619 0 0)
(1.53474 0 0)
(1.54331 0 0)
(1.5519 0 0)
(1.56052 0 0)
(1.56916 0 0)
(1.57783 0 0)
(1.58652 0 0)
(1.59523 0 0)
(1.60396 0 0)
(1.61272 0 0)
(1.6215 0 0)
(1.6303 0 0)
(1.63913 0 0)
(1.64798 0 0)
(1.65684 0 0)
(1.66573 0 0)
(1.67464 0 0)
(1.68358 0 0)
(1.69253 0 0)
(1.7015 0 0)
(1.7105 0 0)
(1.71952 0 0)
(1.72855 0 0)
(1.73761 0 0)
(1.74669 0 0)
(1.75578 0 0)
(1.7649 0 0)
(1.77403 0 0)
(1.78319 0 0)
(1.79236 0 0)
(1.80156 0 0)
(1.81077 0 0)
(1.82 0 0)
(1.82925 0 0)
(1.83852 0 0)
(1.84781 0 0)
(1.85711 0 0)
(1.86643 0 0)
(1.87578 0 0)
(1.88513 0 0)
(1.89451 0 0)
(1.9039 0 0)
(1.91331 0 0)
(1.92274 0 0)
(1.93218 0 0)
(1.94165 0 0)
(1.95112 0 0)
(1.96062 0 0)
(1.97013 0 0)
(1.97965 0 0)
(1.98919 0 0)
(1.99875 0 0)
(2.00833 0 0)
(2.01791 0 0)
(2.02752 0 0)
(2.03714 0 0)
(2.04677 0 0)
(2.05642 0 0)
(2.06608 0 0)
(2.07576 0 0)
(2.08546 0 0)
(2.09516 0 0)
(2.10488 0 0)
(2.11462 0 0)
(2.12437 0 0)
(2.13413 0 0)
(2.1439 0 0)
(2.15369 0 0)
(2.16349 0 0)
(2.17331 0 0)
(2.18313 0 0)
(2.19297 0 0)
(2.20283 0 0)
(2.21269 0 0)
(2.22257 0 0)
(2.23246 0 0)
(2.24236 0 0)
(2.25227 0 0)
(2.26219 0 0)
(2.27213 0 0)
(2.28207 0 0)
(2.29203 0 0)
(2.302 0 0)
(2.31198 0 0)
(2.32196 0 0)
(2.33196 0 0)
(2.34197 0 0)
(2.35199 0 0)
(2.36202 0 0)
(2.37206 0 0)
(2.3821 0 0)
(2.39216 0 0)
(2.40222 0 0)
(2.4123 0 0)
(2.42238 0 0)
(2.43247 0 0)
(2.44257 0 0)
(2.45267 0 0)
(2.46279 0 0)
(2.47291 0 0)
(2.48304 0 0)
(2.49317 0 0)
(2.50332 0 0)
(2.51346 0 0)
(2.52362 0 0)
(2.53378 0 0)
(2.54395 0 0)
(2.55412 0 0)
(2.5643 0 0)
(2.57448 0 0)
(2.58467 0 0)
(2.59486 0 0)
(2.60505 0 0)
(2.61525 0 0)
(2.62545 0 0)
(2.63566 0 0)
(2.64587 0 0)
(2.65608 0 0)
(2.66629 0 0)
(2.67651 0 0)
(2.68672 0 0)
(2.69694 0 0)
(2.70716 0 0)
(2.71737 0 0)
(2.72759 0 0)
(2.73781 0 0)
(2.74803 0 0)
(2.75824 0 0)
(2.76845 0 0)
(2.77866 0 0)
(2.78887 0 0)
(2.79907 0 0)
(2.80927 0 0)
(2.81947 0 0)
(2.82966 0 0)
(2.83984 0 0)
(2.85002 0 0)
(2.86019 0 0)
(2.87036 0 0)
(2.88051 0 0)
(2.89066 0 0)
(2.9008 0 0)
(2.91092 0 0)
(2.92104 0 0)
(2.93114 0 0)
(2.94123 0 0)
(2.95131 0 0)
(2.96137 0 0)
(2.97142 0 0)
(2.98145 0 0)
(2.99146 0 0)
(3.00145 0 0)
(3.01142 0 0)
(3.02138 0 0)
(3.03131 0 0)
(3.04122 0 0)
(3.0511 0 0)
(3.06096 0 0)
(3.07079 0 0)
(3.08059 0 0)
(3.09036 0 0)
(3.1001 0 0)
(3.1098 0 0)
(3.11947 0 0)
(3.12911 0 0)
(3.1387 0 0)
(3.14826 0 0)
(3.15777 0 0)
(3.16723 0 0)
(3.17666 0 0)
(3.18603 0 0)
(3.19535 0 0)
(3.20461 0 0)
(3.21383 0 0)
(3.22298 0 0)
(3.23207 0 0)
(3.24109 0 0)
(3.25005 0 0)
(3.25894 0 0)
(3.26776 0 0)
(3.27649 0 0)
(3.28515 0 0)
(3.29373 0 0)
(3.30221 0 0)
(3.31061 0 0)
(3.3189 0 0)
(3.3271 0 0)
(3.3352 0 0)
(3.34318 0 0)
(3.35105 0 0)
(3.35881 0 0)
(3.36644 0 0)
(3.37394 0 0)
(3.3813 0 0)
(3.38853 0 0)
(3.3956 0 0)
(3.40253 0 0)
(3.4093 0 0)
(3.41589 0 0)
(3.42232 0 0)
(3.42857 0 0)
(3.43462 0 0)
(3.44049 0 0)
(3.44614 0 0)
(3.45159 0 0)
(3.45681 0 0)
(3.4618 0 0)
(3.46656 0 0)
(3.47106 0 0)
(3.47531 0 0)
(3.47928 0 0)
(3.48297 0 0)
(3.48637 0 0)
(3.48947 0 0)
(3.49225 0 0)
(3.4947 0 0)
(3.49682 0 0)
(3.49858 0 0)
(3.49997 0 0)
(3.50098 0 0)
(3.5016 0 0)
(3.50181 0 0)
(3.50159 0 0)
(3.50094 0 0)
(3.49983 0 0)
(3.49825 0 0)
(3.49618 0 0)
(3.49361 0 0)
(3.49052 0 0)
(3.48689 0 0)
(3.48271 0 0)
(3.47795 0 0)
(3.47261 0 0)
(3.46665 0 0)
(3.46007 0 0)
(3.45285 0 0)
(3.44496 0 0)
(3.4364 0 0)
(3.42713 0 0)
(3.41715 0 0)
(3.40644 0 0)
(3.39497 0 0)
(3.38274 0 0)
(3.36973 0 0)
(3.35591 0 0)
(3.34128 0 0)
(3.32582 0 0)
(3.30951 0 0)
(3.29235 0 0)
(3.27432 0 0)
(3.25541 0 0)
(3.23561 0 0)
(3.21492 0 0)
(3.19332 0 0)
(3.17082 0 0)
(3.1474 0 0)
(3.12306 0 0)
(3.09782 0 0)
(3.07166 0 0)
(3.04459 0 0)
(3.01662 0 0)
(2.98776 0 0)
(2.95802 0 0)
(2.92741 0 0)
(2.89595 0 0)
(2.86365 0 0)
(2.83054 0 0)
(2.79664 0 0)
(2.76198 0 0)
(2.72657 0 0)
(2.69046 0 0)
(2.65368 0 0)
(2.61627 0 0)
(2.57825 0 0)
(2.53967 0 0)
(2.50057 0 0)
(2.461 0 0)
(2.421 0 0)
(2.38062 0 0)
(2.3399 0 0)
(2.2989 0 0)
(2.25766 0 0)
(2.21624 0 0)
(2.17469 0 0)
(2.13306 0 0)
(2.0914 0 0)
(2.04976 0 0)
(2.0082 0 0)
(1.96677 0 0)
(1.92551 0 0)
(1.88447 0 0)
(1.84371 0 0)
(1.80327 0 0)
(1.76319 0 0)
(1.72351 0 0)
(1.68429 0 0)
(1.64555 0 0)
(1.60733 0 0)
(1.56967 0 0)
(1.5326 0 0)
(1.49615 0 0)
(1.46034 0 0)
(1.42521 0 0)
(1.39077 0 0)
(1.35705 0 0)
(1.32405 0 0)
(1.29181 0 0)
(1.26032 0 0)
(1.2296 0 0)
(1.19966 0 0)
(1.1705 0 0)
(1.14213 0 0)
(1.11455 0 0)
(1.08776 0 0)
(1.06176 0 0)
(1.03654 0 0)
(1.0121 0 0)
(0.988431 0 0)
(0.965528 0 0)
(0.943379 0 0)
(0.921976 0 0)
(0.901307 0 0)
(0.881359 0 0)
(0.862119 0 0)
(0.843574 0 0)
(0.825708 0 0)
(0.808508 0 0)
(0.791958 0 0)
(0.776041 0 0)
(0.760741 0 0)
(0.746043 0 0)
(0.73193 0 0)
(0.718384 0 0)
(0.705389 0 0)
(0.692929 0 0)
(0.680986 0 0)
(0.669545 0 0)
(0.658589 0 0)
(0.6481 0 0)
(0.638065 0 0)
(0.628466 0 0)
(0.619288 0 0)
(0.610516 0 0)
(0.602135 0 0)
(0.594129 0 0)
(0.586486 0 0)
(0.579191 0 0)
(0.57223 0 0)
(0.56559 0 0)
(0.559258 0 0)
(0.553222 0 0)
(0.547469 0 0)
(0.541988 0 0)
(0.536767 0 0)
(0.531796 0 0)
(0.527063 0 0)
(0.522558 0 0)
(0.518272 0 0)
(0.514195 0 0)
(0.510317 0 0)
(0.50663 0 0)
(0.503125 0 0)
(0.499794 0 0)
(0.496628 0 0)
(0.493621 0 0)
(0.490766 0 0)
(0.488054 0 0)
(0.485479 0 0)
(0.483035 0 0)
(0.480716 0 0)
(0.478516 0 0)
(0.476429 0 0)
(0.474449 0 0)
(0.472572 0 0)
(0.470792 0 0)
(0.469105 0 0)
(0.467506 0 0)
(0.465991 0 0)
(0.464555 0 0)
(0.463196 0 0)
(0.461908 0 0)
(0.460689 0 0)
(0.459534 0 0)
(0.458442 0 0)
(0.457407 0 0)
(0.456429 0 0)
(0.455503 0 0)
(0.454627 0 0)
(0.453799 0 0)
(0.453015 0 0)
(0.452275 0 0)
(0.451574 0 0)
(0.450913 0 0)
(0.450287 0 0)
(0.449696 0 0)
(0.449138 0 0)
(0.44861 0 0)
(0.448112 0 0)
(0.447642 0 0)
(0.447197 0 0)
(0.446778 0 0)
(0.446382 0 0)
(0.446009 0 0)
(0.445656 0 0)
(0.445324 0 0)
(0.44501 0 0)
(0.444714 0 0)
(0.444435 0 0)
(0.444172 0 0)
(0.443923 0 0)
(0.443689 0 0)
(0.443469 0 0)
(0.443261 0 0)
(0.443065 0 0)
(0.442881 0 0)
(0.442707 0 0)
(0.442544 0 0)
(0.442389 0 0)
(0.442244 0 0)
(0.442108 0 0)
(0.441979 0 0)
(0.441858 0 0)
(0.441744 0 0)
(0.441637 0 0)
(0.441536 0 0)
(0.441441 0 0)
(0.441352 0 0)
(0.441268 0 0)
(0.441189 0 0)
(0.441115 0 0)
(0.441045 0 0)
(0.44098 0 0)
(0.440918 0 0)
(0.44086 0 0)
(0.440806 0 0)
(0.440755 0 0)
(0.440707 0 0)
(0.440662 0 0)
(0.440619 0 0)
(0.44058 0 0)
(0.440542 0 0)
(0.440507 0 0)
(0.440475 0 0)
(0.440444 0 0)
(0.440415 0 0)
(0.440388 0 0)
(0.440362 0 0)
(0.440338 0 0)
(0.440316 0 0)
(0.440295 0 0)
(0.440275 0 0)
(0.440257 0 0)
(0.44024 0 0)
(0.440223 0 0)
(0.440208 0 0)
(0.440194 0 0)
(0.440181 0 0)
(0.440168 0 0)
(0.440156 0 0)
(0.440145 0 0)
(0.440135 0 0)
(0.440126 0 0)
(0.440117 0 0)
(0.440108 0 0)
(0.4401 0 0)
(0.440093 0 0)
(0.440086 0 0)
(0.44008 0 0)
(0.440074 0 0)
(0.440068 0 0)
(0.440063 0 0)
(0.440058 0 0)
(0.440053 0 0)
(0.440049 0 0)
(0.440045 0 0)
(0.440041 0 0)
(0.440038 0 0)
(0.440034 0 0)
(0.440031 0 0)
(0.440028 0 0)
(0.440026 0 0)
(0.440023 0 0)
)
;

boundaryField
{
    topWall
    {
        type            empty;
    }
    bottomWall
    {
        type            empty;
    }
    leftAndRight_half1
    {
        type            cyclic;
    }
    leftAndRight_half0
    {
        type            cyclic;
    }
    frontAndBack
    {
        type            empty;
    }
}


// ************************************************************************* //
