/*--------------------------------*- C++ -*----------------------------------*\
  =========                 |
  \\      /  F ield         | OpenFOAM: The Open Source CFD Toolbox
   \\    /   O peration     | Website:  https://openfoam.org
    \\  /    A nd           | Version:  9
     \\/     M anipulation  |
\*---------------------------------------------------------------------------*/
FoamFile
{
    format      ascii;
    class       volVectorField;
    location    "3.15";
    object      U;
}
// * * * * * * * * * * * * * * * * * * * * * * * * * * * * * * * * * * * * * //

dimensions      [0 1 -1 0 0 0 0];

internalField   nonuniform List<vector> 
1000
(
(0.131764 0 0)
(0.131695 0 0)
(0.131765 0 0)
(0.131693 0 0)
(0.131766 0 0)
(0.131691 0 0)
(0.131766 0 0)
(0.131688 0 0)
(0.131767 0 0)
(0.131686 0 0)
(0.131767 0 0)
(0.131684 0 0)
(0.131768 0 0)
(0.131682 0 0)
(0.131768 0 0)
(0.13168 0 0)
(0.131768 0 0)
(0.131677 0 0)
(0.131769 0 0)
(0.131675 0 0)
(0.131769 0 0)
(0.131673 0 0)
(0.131769 0 0)
(0.131671 0 0)
(0.131769 0 0)
(0.131669 0 0)
(0.131769 0 0)
(0.131668 0 0)
(0.131769 0 0)
(0.131666 0 0)
(0.131769 0 0)
(0.131665 0 0)
(0.131769 0 0)
(0.131663 0 0)
(0.131769 0 0)
(0.131663 0 0)
(0.131769 0 0)
(0.131662 0 0)
(0.131769 0 0)
(0.131661 0 0)
(0.131769 0 0)
(0.131661 0 0)
(0.131769 0 0)
(0.131661 0 0)
(0.13177 0 0)
(0.131662 0 0)
(0.13177 0 0)
(0.131663 0 0)
(0.131771 0 0)
(0.131665 0 0)
(0.131772 0 0)
(0.131667 0 0)
(0.131774 0 0)
(0.13167 0 0)
(0.131775 0 0)
(0.131673 0 0)
(0.131778 0 0)
(0.131677 0 0)
(0.13178 0 0)
(0.131682 0 0)
(0.131784 0 0)
(0.131687 0 0)
(0.131788 0 0)
(0.131694 0 0)
(0.131792 0 0)
(0.131701 0 0)
(0.131798 0 0)
(0.131709 0 0)
(0.131804 0 0)
(0.131719 0 0)
(0.131811 0 0)
(0.131729 0 0)
(0.131819 0 0)
(0.131741 0 0)
(0.131829 0 0)
(0.131754 0 0)
(0.131839 0 0)
(0.131769 0 0)
(0.131851 0 0)
(0.131784 0 0)
(0.131864 0 0)
(0.131801 0 0)
(0.13188 0 0)
(0.131819 0 0)
(0.131898 0 0)
(0.131836 0 0)
(0.131922 0 0)
(0.131848 0 0)
(0.131958 0 0)
(0.13185 0 0)
(0.132014 0 0)
(0.131836 0 0)
(0.132093 0 0)
(0.131815 0 0)
(0.132181 0 0)
(0.131826 0 0)
(0.132246 0 0)
(0.13192 0 0)
(0.132277 0 0)
(0.13209 0 0)
(0.132333 0 0)
(0.132261 0 0)
(0.132437 0 0)
(0.132405 0 0)
(0.132554 0 0)
(0.132522 0 0)
(0.132654 0 0)
(0.132614 0 0)
(0.132728 0 0)
(0.132682 0 0)
(0.132781 0 0)
(0.132732 0 0)
(0.132819 0 0)
(0.13277 0 0)
(0.132849 0 0)
(0.132803 0 0)
(0.132876 0 0)
(0.132834 0 0)
(0.132902 0 0)
(0.132865 0 0)
(0.132929 0 0)
(0.132897 0 0)
(0.132957 0 0)
(0.13293 0 0)
(0.132987 0 0)
(0.132964 0 0)
(0.133018 0 0)
(0.132999 0 0)
(0.13305 0 0)
(0.133035 0 0)
(0.133084 0 0)
(0.133073 0 0)
(0.133118 0 0)
(0.133111 0 0)
(0.133154 0 0)
(0.13315 0 0)
(0.133191 0 0)
(0.13319 0 0)
(0.133229 0 0)
(0.13323 0 0)
(0.133267 0 0)
(0.133272 0 0)
(0.133307 0 0)
(0.133313 0 0)
(0.133346 0 0)
(0.133355 0 0)
(0.133387 0 0)
(0.133397 0 0)
(0.133427 0 0)
(0.13344 0 0)
(0.133468 0 0)
(0.133482 0 0)
(0.133509 0 0)
(0.133524 0 0)
(0.13355 0 0)
(0.133566 0 0)
(0.133591 0 0)
(0.133607 0 0)
(0.133631 0 0)
(0.133648 0 0)
(0.133671 0 0)
(0.133688 0 0)
(0.13371 0 0)
(0.133728 0 0)
(0.133748 0 0)
(0.133766 0 0)
(0.133785 0 0)
(0.133803 0 0)
(0.133821 0 0)
(0.133839 0 0)
(0.133856 0 0)
(0.133874 0 0)
(0.133889 0 0)
(0.133907 0 0)
(0.133921 0 0)
(0.133938 0 0)
(0.133951 0 0)
(0.133967 0 0)
(0.13398 0 0)
(0.133995 0 0)
(0.134006 0 0)
(0.13402 0 0)
(0.13403 0 0)
(0.134043 0 0)
(0.134051 0 0)
(0.134064 0 0)
(0.13407 0 0)
(0.134084 0 0)
(0.134085 0 0)
(0.134101 0 0)
(0.134098 0 0)
(0.134114 0 0)
(0.134109 0 0)
(0.134124 0 0)
(0.134119 0 0)
(0.134131 0 0)
(0.134128 0 0)
(0.134137 0 0)
(0.134137 0 0)
(0.134147 0 0)
(0.13415 0 0)
(0.134161 0 0)
(0.134161 0 0)
(0.134156 0 0)
(0.134123 0 0)
(0.13407 0 0)
(0.133986 0 0)
(0.133896 0 0)
(0.133799 0 0)
(0.133721 0 0)
(0.133654 0 0)
(0.13361 0 0)
(0.133575 0 0)
(0.133557 0 0)
(0.133541 0 0)
(0.133535 0 0)
(0.133526 0 0)
(0.133524 0 0)
(0.133517 0 0)
(0.133514 0 0)
(0.133508 0 0)
(0.133504 0 0)
(0.133497 0 0)
(0.133492 0 0)
(0.133484 0 0)
(0.133478 0 0)
(0.133469 0 0)
(0.133461 0 0)
(0.133451 0 0)
(0.133443 0 0)
(0.133431 0 0)
(0.133422 0 0)
(0.13341 0 0)
(0.133399 0 0)
(0.133386 0 0)
(0.133374 0 0)
(0.13336 0 0)
(0.133348 0 0)
(0.133333 0 0)
(0.13332 0 0)
(0.133304 0 0)
(0.13329 0 0)
(0.133273 0 0)
(0.133258 0 0)
(0.133241 0 0)
(0.133225 0 0)
(0.133208 0 0)
(0.133191 0 0)
(0.133173 0 0)
(0.133156 0 0)
(0.133137 0 0)
(0.133119 0 0)
(0.1331 0 0)
(0.133082 0 0)
(0.133063 0 0)
(0.133044 0 0)
(0.133024 0 0)
(0.133005 0 0)
(0.132985 0 0)
(0.132966 0 0)
(0.132945 0 0)
(0.132926 0 0)
(0.132905 0 0)
(0.132885 0 0)
(0.132865 0 0)
(0.132845 0 0)
(0.132825 0 0)
(0.132805 0 0)
(0.132784 0 0)
(0.132764 0 0)
(0.132744 0 0)
(0.132724 0 0)
(0.132703 0 0)
(0.132684 0 0)
(0.132664 0 0)
(0.132644 0 0)
(0.132624 0 0)
(0.132604 0 0)
(0.132585 0 0)
(0.132565 0 0)
(0.132546 0 0)
(0.132527 0 0)
(0.132508 0 0)
(0.132489 0 0)
(0.132471 0 0)
(0.132453 0 0)
(0.132434 0 0)
(0.132416 0 0)
(0.132399 0 0)
(0.132381 0 0)
(0.132364 0 0)
(0.132347 0 0)
(0.13233 0 0)
(0.132314 0 0)
(0.132297 0 0)
(0.132281 0 0)
(0.132265 0 0)
(0.13225 0 0)
(0.132235 0 0)
(0.13222 0 0)
(0.132205 0 0)
(0.132191 0 0)
(0.132176 0 0)
(0.132163 0 0)
(0.132149 0 0)
(0.132136 0 0)
(0.132123 0 0)
(0.13211 0 0)
(0.132097 0 0)
(0.132085 0 0)
(0.132073 0 0)
(0.132062 0 0)
(0.13205 0 0)
(0.132039 0 0)
(0.132029 0 0)
(0.132018 0 0)
(0.132008 0 0)
(0.131998 0 0)
(0.131988 0 0)
(0.131979 0 0)
(0.13197 0 0)
(0.131961 0 0)
(0.131952 0 0)
(0.131944 0 0)
(0.131936 0 0)
(0.131928 0 0)
(0.13192 0 0)
(0.131913 0 0)
(0.131906 0 0)
(0.131899 0 0)
(0.131892 0 0)
(0.131885 0 0)
(0.131879 0 0)
(0.131873 0 0)
(0.131867 0 0)
(0.131862 0 0)
(0.131856 0 0)
(0.131851 0 0)
(0.131846 0 0)
(0.131841 0 0)
(0.131836 0 0)
(0.131832 0 0)
(0.131827 0 0)
(0.131823 0 0)
(0.131819 0 0)
(0.131815 0 0)
(0.131812 0 0)
(0.131808 0 0)
(0.131805 0 0)
(0.131801 0 0)
(0.131798 0 0)
(0.131795 0 0)
(0.131792 0 0)
(0.13179 0 0)
(0.131787 0 0)
(0.131784 0 0)
(0.131782 0 0)
(0.13178 0 0)
(0.131777 0 0)
(0.131775 0 0)
(0.131773 0 0)
(0.131771 0 0)
(0.13177 0 0)
(0.131768 0 0)
(0.131766 0 0)
(0.131765 0 0)
(0.131763 0 0)
(0.131762 0 0)
(0.13176 0 0)
(0.131759 0 0)
(0.131758 0 0)
(0.131757 0 0)
(0.131756 0 0)
(0.131755 0 0)
(0.131754 0 0)
(0.131753 0 0)
(0.131752 0 0)
(0.131751 0 0)
(0.13175 0 0)
(0.131749 0 0)
(0.131749 0 0)
(0.131748 0 0)
(0.131747 0 0)
(0.131747 0 0)
(0.131746 0 0)
(0.131746 0 0)
(0.131745 0 0)
(0.131745 0 0)
(0.131744 0 0)
(0.131744 0 0)
(0.131744 0 0)
(0.131743 0 0)
(0.131743 0 0)
(0.131743 0 0)
(0.131742 0 0)
(0.131742 0 0)
(0.131742 0 0)
(0.131741 0 0)
(0.131741 0 0)
(0.131741 0 0)
(0.131741 0 0)
(0.131741 0 0)
(0.13174 0 0)
(0.13174 0 0)
(0.13174 0 0)
(0.13174 0 0)
(0.13174 0 0)
(0.13174 0 0)
(0.13174 0 0)
(0.131739 0 0)
(0.131739 0 0)
(0.131739 0 0)
(0.131739 0 0)
(0.131739 0 0)
(0.131739 0 0)
(0.131739 0 0)
(0.131739 0 0)
(0.131739 0 0)
(0.131739 0 0)
(0.131739 0 0)
(0.131739 0 0)
(0.131739 0 0)
(0.131739 0 0)
(0.131738 0 0)
(0.131738 0 0)
(0.131738 0 0)
(0.131738 0 0)
(0.131738 0 0)
(0.131738 0 0)
(0.131738 0 0)
(0.131738 0 0)
(0.131738 0 0)
(0.131738 0 0)
(0.131738 0 0)
(0.131738 0 0)
(0.131738 0 0)
(0.131738 0 0)
(0.131738 0 0)
(0.131738 0 0)
(0.131738 0 0)
(0.131738 0 0)
(0.131738 0 0)
(0.131738 0 0)
(0.131738 0 0)
(0.131738 0 0)
(0.131738 0 0)
(0.131738 0 0)
(0.131738 0 0)
(0.131738 0 0)
(0.131738 0 0)
(0.131738 0 0)
(0.131738 0 0)
(0.131738 0 0)
(0.131738 0 0)
(0.131738 0 0)
(0.131738 0 0)
(0.131738 0 0)
(0.131738 0 0)
(0.131738 0 0)
(0.131738 0 0)
(0.131738 0 0)
(0.131738 0 0)
(0.131738 0 0)
(0.131738 0 0)
(0.131738 0 0)
(0.131738 0 0)
(0.131738 0 0)
(0.131738 0 0)
(0.131738 0 0)
(0.131738 0 0)
(0.131738 0 0)
(0.131738 0 0)
(0.131738 0 0)
(0.131738 0 0)
(0.131738 0 0)
(0.131738 0 0)
(0.131738 0 0)
(0.131738 0 0)
(0.131738 0 0)
(0.131738 0 0)
(0.131738 0 0)
(0.131738 0 0)
(0.131738 0 0)
(0.131738 0 0)
(0.131738 0 0)
(0.131738 0 0)
(0.131738 0 0)
(0.131738 0 0)
(0.131738 0 0)
(0.131738 0 0)
(0.131738 0 0)
(0.131738 0 0)
(0.131738 0 0)
(0.131738 0 0)
(0.131738 0 0)
(0.131738 0 0)
(0.131738 0 0)
(0.131738 0 0)
(0.131738 0 0)
(0.131738 0 0)
(0.131738 0 0)
(0.131738 0 0)
(0.131738 0 0)
(0.131738 0 0)
(0.131738 0 0)
(0.131738 0 0)
(0.131738 0 0)
(0.131738 0 0)
(0.131738 0 0)
(0.131738 0 0)
(0.131738 0 0)
(0.131738 0 0)
(0.131738 0 0)
(0.131738 0 0)
(0.131738 0 0)
(0.131738 0 0)
(0.131738 0 0)
(0.131738 0 0)
(0.131738 0 0)
(0.131738 0 0)
(0.131738 0 0)
(0.131738 0 0)
(0.131738 0 0)
(0.131738 0 0)
(0.131738 0 0)
(0.131738 0 0)
(0.131738 0 0)
(0.131738 0 0)
(0.131738 0 0)
(0.131738 0 0)
(0.131738 0 0)
(0.131738 0 0)
(0.131738 0 0)
(0.131738 0 0)
(0.131738 0 0)
(0.131738 0 0)
(0.131738 0 0)
(0.131738 0 0)
(0.131738 0 0)
(0.131738 0 0)
(0.131738 0 0)
(0.131738 0 0)
(0.131738 0 0)
(0.131738 0 0)
(0.131738 0 0)
(0.131738 0 0)
(0.131738 0 0)
(0.131738 0 0)
(0.131738 0 0)
(0.131738 0 0)
(0.131738 0 0)
(0.131738 0 0)
(0.131738 0 0)
(0.131738 0 0)
(0.131738 0 0)
(0.131738 0 0)
(0.131738 0 0)
(0.131738 0 0)
(0.131738 0 0)
(0.131738 0 0)
(0.131738 0 0)
(0.131738 0 0)
(0.131738 0 0)
(0.131738 0 0)
(0.131738 0 0)
(0.131738 0 0)
(0.131738 0 0)
(0.131738 0 0)
(0.131738 0 0)
(0.131738 0 0)
(0.131738 0 0)
(0.131738 0 0)
(0.131738 0 0)
(0.131738 0 0)
(0.131738 0 0)
(0.131738 0 0)
(0.131738 0 0)
(0.131738 0 0)
(0.131738 0 0)
(0.131738 0 0)
(0.131738 0 0)
(0.131738 0 0)
(0.131738 0 0)
(0.131738 0 0)
(0.131738 0 0)
(0.131738 0 0)
(0.131738 0 0)
(0.131738 0 0)
(0.131738 0 0)
(0.131738 0 0)
(0.131738 0 0)
(0.131738 0 0)
(0.131738 0 0)
(0.131738 0 0)
(0.131738 0 0)
(0.131738 0 0)
(0.131738 0 0)
(0.131738 0 0)
(0.131738 0 0)
(0.131738 0 0)
(0.131738 0 0)
(0.131738 0 0)
(0.131738 0 0)
(0.131738 0 0)
(0.131738 0 0)
(0.131738 0 0)
(0.131738 0 0)
(0.131738 0 0)
(0.131738 0 0)
(0.131738 0 0)
(0.131738 0 0)
(0.131738 0 0)
(0.131738 0 0)
(0.131738 0 0)
(0.131738 0 0)
(0.131738 0 0)
(0.131738 0 0)
(0.131738 0 0)
(0.131738 0 0)
(0.131738 0 0)
(0.131738 0 0)
(0.131738 0 0)
(0.131738 0 0)
(0.131738 0 0)
(0.131738 0 0)
(0.131738 0 0)
(0.131738 0 0)
(0.131738 0 0)
(0.131738 0 0)
(0.131738 0 0)
(0.131738 0 0)
(0.131738 0 0)
(0.131738 0 0)
(0.131738 0 0)
(0.131738 0 0)
(0.131738 0 0)
(0.131738 0 0)
(0.131738 0 0)
(0.131738 0 0)
(0.131738 0 0)
(0.131738 0 0)
(0.131738 0 0)
(0.131738 0 0)
(0.131738 0 0)
(0.131738 0 0)
(0.131738 0 0)
(0.131738 0 0)
(0.131738 0 0)
(0.131738 0 0)
(0.131738 0 0)
(0.131738 0 0)
(0.131738 0 0)
(0.131738 0 0)
(0.131738 0 0)
(0.131738 0 0)
(0.131738 0 0)
(0.131738 0 0)
(0.131738 0 0)
(0.131738 0 0)
(0.131738 0 0)
(0.131738 0 0)
(0.131738 0 0)
(0.131738 0 0)
(0.131738 0 0)
(0.131738 0 0)
(0.131738 0 0)
(0.131738 0 0)
(0.131738 0 0)
(0.131738 0 0)
(0.131738 0 0)
(0.131738 0 0)
(0.131738 0 0)
(0.131738 0 0)
(0.131738 0 0)
(0.131738 0 0)
(0.131738 0 0)
(0.131738 0 0)
(0.131738 0 0)
(0.131738 0 0)
(0.131738 0 0)
(0.131738 0 0)
(0.131738 0 0)
(0.131738 0 0)
(0.131738 0 0)
(0.131738 0 0)
(0.131738 0 0)
(0.131738 0 0)
(0.131738 0 0)
(0.131738 0 0)
(0.131738 0 0)
(0.131738 0 0)
(0.131738 0 0)
(0.131738 0 0)
(0.131738 0 0)
(0.131738 0 0)
(0.131738 0 0)
(0.131738 0 0)
(0.131738 0 0)
(0.131738 0 0)
(0.131738 0 0)
(0.131738 0 0)
(0.131738 0 0)
(0.131738 0 0)
(0.131738 0 0)
(0.131738 0 0)
(0.131738 0 0)
(0.131738 0 0)
(0.131738 0 0)
(0.131738 0 0)
(0.131738 0 0)
(0.131738 0 0)
(0.131738 0 0)
(0.131738 0 0)
(0.131738 0 0)
(0.131738 0 0)
(0.131738 0 0)
(0.131738 0 0)
(0.131738 0 0)
(0.131738 0 0)
(0.131738 0 0)
(0.131738 0 0)
(0.131738 0 0)
(0.131738 0 0)
(0.131738 0 0)
(0.131738 0 0)
(0.131738 0 0)
(0.131738 0 0)
(0.131738 0 0)
(0.131738 0 0)
(0.131738 0 0)
(0.131738 0 0)
(0.131738 0 0)
(0.131738 0 0)
(0.131738 0 0)
(0.131738 0 0)
(0.131738 0 0)
(0.131738 0 0)
(0.131738 0 0)
(0.131738 0 0)
(0.131738 0 0)
(0.131738 0 0)
(0.131738 0 0)
(0.131738 0 0)
(0.131738 0 0)
(0.131738 0 0)
(0.131738 0 0)
(0.131738 0 0)
(0.131738 0 0)
(0.131738 0 0)
(0.131738 0 0)
(0.131738 0 0)
(0.131738 0 0)
(0.131738 0 0)
(0.131738 0 0)
(0.131738 0 0)
(0.131738 0 0)
(0.131738 0 0)
(0.131738 0 0)
(0.131738 0 0)
(0.131738 0 0)
(0.131738 0 0)
(0.131738 0 0)
(0.131738 0 0)
(0.131738 0 0)
(0.131738 0 0)
(0.131738 0 0)
(0.131738 0 0)
(0.131738 0 0)
(0.131738 0 0)
(0.131738 0 0)
(0.131738 0 0)
(0.131738 0 0)
(0.131738 0 0)
(0.131738 0 0)
(0.131738 0 0)
(0.131738 0 0)
(0.131738 0 0)
(0.131738 0 0)
(0.131738 0 0)
(0.131738 0 0)
(0.131738 0 0)
(0.131738 0 0)
(0.131738 0 0)
(0.131738 0 0)
(0.131738 0 0)
(0.131738 0 0)
(0.131738 0 0)
(0.131738 0 0)
(0.131738 0 0)
(0.131738 0 0)
(0.131738 0 0)
(0.131738 0 0)
(0.131738 0 0)
(0.131738 0 0)
(0.131738 0 0)
(0.131738 0 0)
(0.131738 0 0)
(0.131738 0 0)
(0.131738 0 0)
(0.131738 0 0)
(0.131738 0 0)
(0.131738 0 0)
(0.131738 0 0)
(0.131738 0 0)
(0.131738 0 0)
(0.131738 0 0)
(0.131738 0 0)
(0.131738 0 0)
(0.131738 0 0)
(0.131738 0 0)
(0.131738 0 0)
(0.131738 0 0)
(0.131738 0 0)
(0.131738 0 0)
(0.131738 0 0)
(0.131738 0 0)
(0.131738 0 0)
(0.131738 0 0)
(0.131738 0 0)
(0.131738 0 0)
(0.131738 0 0)
(0.131738 0 0)
(0.131738 0 0)
(0.131738 0 0)
(0.131738 0 0)
(0.131738 0 0)
(0.131738 0 0)
(0.131738 0 0)
(0.131738 0 0)
(0.131738 0 0)
(0.131738 0 0)
(0.131738 0 0)
(0.131738 0 0)
(0.131738 0 0)
(0.131738 0 0)
(0.131738 0 0)
(0.131738 0 0)
(0.131738 0 0)
(0.131738 0 0)
(0.131738 0 0)
(0.131738 0 0)
(0.131738 0 0)
(0.131738 0 0)
(0.131738 0 0)
(0.131738 0 0)
(0.131738 0 0)
(0.131738 0 0)
(0.131738 0 0)
(0.131738 0 0)
(0.131738 0 0)
(0.131738 0 0)
(0.131738 0 0)
(0.131738 0 0)
(0.131738 0 0)
(0.131738 0 0)
(0.131738 0 0)
(0.131738 0 0)
(0.131738 0 0)
(0.131738 0 0)
(0.131738 0 0)
(0.131738 0 0)
(0.131738 0 0)
(0.131738 0 0)
(0.131738 0 0)
(0.131738 0 0)
(0.131738 0 0)
(0.131738 0 0)
(0.131738 0 0)
(0.131738 0 0)
(0.131738 0 0)
(0.131738 0 0)
(0.131738 0 0)
(0.131738 0 0)
(0.131738 0 0)
(0.131738 0 0)
(0.131738 0 0)
(0.131738 0 0)
(0.131738 0 0)
(0.131738 0 0)
(0.131738 0 0)
(0.131738 0 0)
(0.131738 0 0)
(0.131738 0 0)
(0.131738 0 0)
(0.131738 0 0)
(0.131738 0 0)
(0.131738 0 0)
(0.131738 0 0)
(0.131738 0 0)
(0.131738 0 0)
(0.131738 0 0)
(0.131738 0 0)
(0.131738 0 0)
(0.131738 0 0)
(0.131738 0 0)
(0.131738 0 0)
(0.131738 0 0)
(0.131738 0 0)
(0.131738 0 0)
(0.131738 0 0)
(0.131738 0 0)
(0.131738 0 0)
(0.131738 0 0)
(0.131738 0 0)
(0.131739 0 0)
(0.131737 0 0)
(0.131739 0 0)
(0.131737 0 0)
(0.131739 0 0)
(0.131737 0 0)
(0.131739 0 0)
(0.131737 0 0)
(0.131739 0 0)
(0.131737 0 0)
(0.131739 0 0)
(0.131737 0 0)
(0.131739 0 0)
(0.131737 0 0)
(0.131739 0 0)
(0.131737 0 0)
(0.131739 0 0)
(0.131736 0 0)
(0.13174 0 0)
(0.131736 0 0)
(0.13174 0 0)
(0.131736 0 0)
(0.13174 0 0)
(0.131736 0 0)
(0.13174 0 0)
(0.131736 0 0)
(0.13174 0 0)
(0.131735 0 0)
(0.131741 0 0)
(0.131735 0 0)
(0.131741 0 0)
(0.131735 0 0)
(0.131741 0 0)
(0.131734 0 0)
(0.131742 0 0)
(0.131734 0 0)
(0.131742 0 0)
(0.131733 0 0)
(0.131742 0 0)
(0.131733 0 0)
(0.131743 0 0)
(0.131732 0 0)
(0.131743 0 0)
(0.131732 0 0)
(0.131744 0 0)
(0.131731 0 0)
(0.131744 0 0)
(0.131731 0 0)
(0.131745 0 0)
(0.13173 0 0)
(0.131745 0 0)
(0.131729 0 0)
(0.131746 0 0)
(0.131728 0 0)
(0.131747 0 0)
(0.131728 0 0)
(0.131747 0 0)
(0.131727 0 0)
(0.131748 0 0)
(0.131726 0 0)
(0.131749 0 0)
(0.131725 0 0)
(0.131749 0 0)
(0.131724 0 0)
(0.13175 0 0)
(0.131722 0 0)
(0.131751 0 0)
(0.131721 0 0)
(0.131752 0 0)
(0.13172 0 0)
(0.131753 0 0)
(0.131719 0 0)
(0.131754 0 0)
(0.131717 0 0)
(0.131755 0 0)
(0.131716 0 0)
(0.131755 0 0)
(0.131714 0 0)
(0.131756 0 0)
(0.131712 0 0)
(0.131757 0 0)
(0.131711 0 0)
(0.131758 0 0)
(0.131709 0 0)
(0.131759 0 0)
(0.131707 0 0)
(0.13176 0 0)
(0.131705 0 0)
(0.131761 0 0)
(0.131703 0 0)
(0.131762 0 0)
(0.131701 0 0)
(0.131763 0 0)
(0.131699 0 0)
(0.131763 0 0)
(0.131697 0 0)
)
;

boundaryField
{
    topWall
    {
        type            empty;
    }
    bottomWall
    {
        type            empty;
    }
    leftAndRight_half1
    {
        type            cyclic;
    }
    leftAndRight_half0
    {
        type            cyclic;
    }
    frontAndBack
    {
        type            empty;
    }
}


// ************************************************************************* //
