/*--------------------------------*- C++ -*----------------------------------*\
  =========                 |
  \\      /  F ield         | OpenFOAM: The Open Source CFD Toolbox
   \\    /   O peration     | Website:  https://openfoam.org
    \\  /    A nd           | Version:  9
     \\/     M anipulation  |
\*---------------------------------------------------------------------------*/
FoamFile
{
    format      ascii;
    class       volVectorField;
    location    "2.35";
    object      U;
}
// * * * * * * * * * * * * * * * * * * * * * * * * * * * * * * * * * * * * * //

dimensions      [0 1 -1 0 0 0 0];

internalField   nonuniform List<vector> 
1000
(
(0.131759 0 0)
(0.131704 0 0)
(0.13176 0 0)
(0.131702 0 0)
(0.131761 0 0)
(0.131699 0 0)
(0.131762 0 0)
(0.131696 0 0)
(0.131763 0 0)
(0.131693 0 0)
(0.131763 0 0)
(0.13169 0 0)
(0.131764 0 0)
(0.131686 0 0)
(0.131765 0 0)
(0.131683 0 0)
(0.131766 0 0)
(0.131679 0 0)
(0.131766 0 0)
(0.131676 0 0)
(0.131766 0 0)
(0.131672 0 0)
(0.131767 0 0)
(0.131668 0 0)
(0.131767 0 0)
(0.131665 0 0)
(0.131767 0 0)
(0.131661 0 0)
(0.131766 0 0)
(0.131657 0 0)
(0.131766 0 0)
(0.131653 0 0)
(0.131765 0 0)
(0.13165 0 0)
(0.131765 0 0)
(0.131646 0 0)
(0.131764 0 0)
(0.131642 0 0)
(0.131763 0 0)
(0.131639 0 0)
(0.131762 0 0)
(0.131636 0 0)
(0.131761 0 0)
(0.131633 0 0)
(0.131759 0 0)
(0.13163 0 0)
(0.131758 0 0)
(0.131628 0 0)
(0.131757 0 0)
(0.131626 0 0)
(0.131756 0 0)
(0.131625 0 0)
(0.131755 0 0)
(0.131624 0 0)
(0.131754 0 0)
(0.131624 0 0)
(0.131753 0 0)
(0.131624 0 0)
(0.131753 0 0)
(0.131625 0 0)
(0.131753 0 0)
(0.131627 0 0)
(0.131754 0 0)
(0.13163 0 0)
(0.131755 0 0)
(0.131634 0 0)
(0.131757 0 0)
(0.131639 0 0)
(0.13176 0 0)
(0.131646 0 0)
(0.131764 0 0)
(0.131653 0 0)
(0.131769 0 0)
(0.131663 0 0)
(0.131775 0 0)
(0.131673 0 0)
(0.131782 0 0)
(0.131686 0 0)
(0.131791 0 0)
(0.131699 0 0)
(0.131802 0 0)
(0.131715 0 0)
(0.131815 0 0)
(0.131732 0 0)
(0.131831 0 0)
(0.131748 0 0)
(0.131853 0 0)
(0.131761 0 0)
(0.131888 0 0)
(0.131763 0 0)
(0.131943 0 0)
(0.131749 0 0)
(0.132021 0 0)
(0.13173 0 0)
(0.132111 0 0)
(0.131744 0 0)
(0.132176 0 0)
(0.131841 0 0)
(0.132209 0 0)
(0.132013 0 0)
(0.132267 0 0)
(0.132189 0 0)
(0.132374 0 0)
(0.132337 0 0)
(0.132494 0 0)
(0.13246 0 0)
(0.132598 0 0)
(0.132558 0 0)
(0.132678 0 0)
(0.132633 0 0)
(0.132737 0 0)
(0.13269 0 0)
(0.132781 0 0)
(0.132736 0 0)
(0.132818 0 0)
(0.132778 0 0)
(0.132853 0 0)
(0.132818 0 0)
(0.132888 0 0)
(0.132859 0 0)
(0.132924 0 0)
(0.132902 0 0)
(0.132963 0 0)
(0.132945 0 0)
(0.133003 0 0)
(0.132991 0 0)
(0.133045 0 0)
(0.133038 0 0)
(0.133089 0 0)
(0.133087 0 0)
(0.133134 0 0)
(0.133136 0 0)
(0.133181 0 0)
(0.133187 0 0)
(0.133229 0 0)
(0.133239 0 0)
(0.133279 0 0)
(0.133292 0 0)
(0.13333 0 0)
(0.133346 0 0)
(0.133381 0 0)
(0.1334 0 0)
(0.133434 0 0)
(0.133454 0 0)
(0.133486 0 0)
(0.133509 0 0)
(0.13354 0 0)
(0.133564 0 0)
(0.133593 0 0)
(0.133618 0 0)
(0.133646 0 0)
(0.133672 0 0)
(0.133699 0 0)
(0.133726 0 0)
(0.133751 0 0)
(0.133779 0 0)
(0.133803 0 0)
(0.133831 0 0)
(0.133853 0 0)
(0.133881 0 0)
(0.133903 0 0)
(0.133931 0 0)
(0.133951 0 0)
(0.133979 0 0)
(0.133998 0 0)
(0.134025 0 0)
(0.134043 0 0)
(0.134069 0 0)
(0.134086 0 0)
(0.134111 0 0)
(0.134127 0 0)
(0.134151 0 0)
(0.134166 0 0)
(0.134189 0 0)
(0.134202 0 0)
(0.134224 0 0)
(0.134236 0 0)
(0.134256 0 0)
(0.134267 0 0)
(0.134286 0 0)
(0.134295 0 0)
(0.134312 0 0)
(0.134319 0 0)
(0.134335 0 0)
(0.134341 0 0)
(0.134356 0 0)
(0.134358 0 0)
(0.134373 0 0)
(0.134372 0 0)
(0.134387 0 0)
(0.134382 0 0)
(0.134398 0 0)
(0.134389 0 0)
(0.134403 0 0)
(0.134394 0 0)
(0.134404 0 0)
(0.134397 0 0)
(0.134404 0 0)
(0.134399 0 0)
(0.134406 0 0)
(0.134405 0 0)
(0.134413 0 0)
(0.134408 0 0)
(0.134399 0 0)
(0.13436 0 0)
(0.134303 0 0)
(0.134213 0 0)
(0.134118 0 0)
(0.134016 0 0)
(0.133932 0 0)
(0.133859 0 0)
(0.133809 0 0)
(0.133769 0 0)
(0.133744 0 0)
(0.133722 0 0)
(0.133708 0 0)
(0.133693 0 0)
(0.133683 0 0)
(0.13367 0 0)
(0.13366 0 0)
(0.133646 0 0)
(0.133635 0 0)
(0.13362 0 0)
(0.133608 0 0)
(0.133592 0 0)
(0.133578 0 0)
(0.133561 0 0)
(0.133545 0 0)
(0.133527 0 0)
(0.133511 0 0)
(0.133491 0 0)
(0.133474 0 0)
(0.133453 0 0)
(0.133435 0 0)
(0.133413 0 0)
(0.133393 0 0)
(0.133372 0 0)
(0.133351 0 0)
(0.133328 0 0)
(0.133306 0 0)
(0.133283 0 0)
(0.13326 0 0)
(0.133236 0 0)
(0.133213 0 0)
(0.133189 0 0)
(0.133165 0 0)
(0.13314 0 0)
(0.133116 0 0)
(0.133091 0 0)
(0.133066 0 0)
(0.133041 0 0)
(0.133016 0 0)
(0.13299 0 0)
(0.132965 0 0)
(0.132939 0 0)
(0.132914 0 0)
(0.132888 0 0)
(0.132863 0 0)
(0.132838 0 0)
(0.132813 0 0)
(0.132787 0 0)
(0.132762 0 0)
(0.132737 0 0)
(0.132713 0 0)
(0.132688 0 0)
(0.132663 0 0)
(0.132639 0 0)
(0.132615 0 0)
(0.132591 0 0)
(0.132568 0 0)
(0.132544 0 0)
(0.132521 0 0)
(0.132498 0 0)
(0.132476 0 0)
(0.132454 0 0)
(0.132432 0 0)
(0.132411 0 0)
(0.132389 0 0)
(0.132369 0 0)
(0.132348 0 0)
(0.132328 0 0)
(0.132308 0 0)
(0.132289 0 0)
(0.13227 0 0)
(0.132251 0 0)
(0.132233 0 0)
(0.132216 0 0)
(0.132198 0 0)
(0.132181 0 0)
(0.132165 0 0)
(0.132149 0 0)
(0.132133 0 0)
(0.132117 0 0)
(0.132103 0 0)
(0.132088 0 0)
(0.132074 0 0)
(0.13206 0 0)
(0.132047 0 0)
(0.132034 0 0)
(0.132021 0 0)
(0.132009 0 0)
(0.131997 0 0)
(0.131986 0 0)
(0.131975 0 0)
(0.131964 0 0)
(0.131954 0 0)
(0.131944 0 0)
(0.131935 0 0)
(0.131925 0 0)
(0.131917 0 0)
(0.131908 0 0)
(0.1319 0 0)
(0.131892 0 0)
(0.131884 0 0)
(0.131877 0 0)
(0.13187 0 0)
(0.131863 0 0)
(0.131857 0 0)
(0.131851 0 0)
(0.131845 0 0)
(0.131839 0 0)
(0.131834 0 0)
(0.131828 0 0)
(0.131823 0 0)
(0.131819 0 0)
(0.131814 0 0)
(0.13181 0 0)
(0.131806 0 0)
(0.131802 0 0)
(0.131798 0 0)
(0.131795 0 0)
(0.131791 0 0)
(0.131788 0 0)
(0.131785 0 0)
(0.131782 0 0)
(0.13178 0 0)
(0.131777 0 0)
(0.131775 0 0)
(0.131772 0 0)
(0.13177 0 0)
(0.131768 0 0)
(0.131766 0 0)
(0.131764 0 0)
(0.131763 0 0)
(0.131761 0 0)
(0.131759 0 0)
(0.131758 0 0)
(0.131757 0 0)
(0.131755 0 0)
(0.131754 0 0)
(0.131753 0 0)
(0.131752 0 0)
(0.131751 0 0)
(0.13175 0 0)
(0.131749 0 0)
(0.131748 0 0)
(0.131748 0 0)
(0.131747 0 0)
(0.131746 0 0)
(0.131746 0 0)
(0.131745 0 0)
(0.131745 0 0)
(0.131744 0 0)
(0.131744 0 0)
(0.131743 0 0)
(0.131743 0 0)
(0.131742 0 0)
(0.131742 0 0)
(0.131742 0 0)
(0.131741 0 0)
(0.131741 0 0)
(0.131741 0 0)
(0.131741 0 0)
(0.13174 0 0)
(0.13174 0 0)
(0.13174 0 0)
(0.13174 0 0)
(0.13174 0 0)
(0.13174 0 0)
(0.131739 0 0)
(0.131739 0 0)
(0.131739 0 0)
(0.131739 0 0)
(0.131739 0 0)
(0.131739 0 0)
(0.131739 0 0)
(0.131739 0 0)
(0.131739 0 0)
(0.131739 0 0)
(0.131739 0 0)
(0.131739 0 0)
(0.131738 0 0)
(0.131738 0 0)
(0.131738 0 0)
(0.131738 0 0)
(0.131738 0 0)
(0.131738 0 0)
(0.131738 0 0)
(0.131738 0 0)
(0.131738 0 0)
(0.131738 0 0)
(0.131738 0 0)
(0.131738 0 0)
(0.131738 0 0)
(0.131738 0 0)
(0.131738 0 0)
(0.131738 0 0)
(0.131738 0 0)
(0.131738 0 0)
(0.131738 0 0)
(0.131738 0 0)
(0.131738 0 0)
(0.131738 0 0)
(0.131738 0 0)
(0.131738 0 0)
(0.131738 0 0)
(0.131738 0 0)
(0.131738 0 0)
(0.131738 0 0)
(0.131738 0 0)
(0.131738 0 0)
(0.131738 0 0)
(0.131738 0 0)
(0.131738 0 0)
(0.131738 0 0)
(0.131738 0 0)
(0.131738 0 0)
(0.131738 0 0)
(0.131738 0 0)
(0.131738 0 0)
(0.131738 0 0)
(0.131738 0 0)
(0.131738 0 0)
(0.131738 0 0)
(0.131738 0 0)
(0.131738 0 0)
(0.131738 0 0)
(0.131738 0 0)
(0.131738 0 0)
(0.131738 0 0)
(0.131738 0 0)
(0.131738 0 0)
(0.131738 0 0)
(0.131738 0 0)
(0.131738 0 0)
(0.131738 0 0)
(0.131738 0 0)
(0.131738 0 0)
(0.131738 0 0)
(0.131738 0 0)
(0.131738 0 0)
(0.131738 0 0)
(0.131738 0 0)
(0.131738 0 0)
(0.131738 0 0)
(0.131738 0 0)
(0.131738 0 0)
(0.131738 0 0)
(0.131738 0 0)
(0.131738 0 0)
(0.131738 0 0)
(0.131738 0 0)
(0.131738 0 0)
(0.131738 0 0)
(0.131738 0 0)
(0.131738 0 0)
(0.131738 0 0)
(0.131738 0 0)
(0.131738 0 0)
(0.131738 0 0)
(0.131738 0 0)
(0.131738 0 0)
(0.131738 0 0)
(0.131738 0 0)
(0.131738 0 0)
(0.131738 0 0)
(0.131738 0 0)
(0.131738 0 0)
(0.131738 0 0)
(0.131738 0 0)
(0.131738 0 0)
(0.131738 0 0)
(0.131738 0 0)
(0.131738 0 0)
(0.131738 0 0)
(0.131738 0 0)
(0.131738 0 0)
(0.131738 0 0)
(0.131738 0 0)
(0.131738 0 0)
(0.131738 0 0)
(0.131738 0 0)
(0.131738 0 0)
(0.131738 0 0)
(0.131738 0 0)
(0.131738 0 0)
(0.131738 0 0)
(0.131738 0 0)
(0.131738 0 0)
(0.131738 0 0)
(0.131738 0 0)
(0.131738 0 0)
(0.131738 0 0)
(0.131738 0 0)
(0.131738 0 0)
(0.131738 0 0)
(0.131738 0 0)
(0.131738 0 0)
(0.131738 0 0)
(0.131738 0 0)
(0.131738 0 0)
(0.131738 0 0)
(0.131738 0 0)
(0.131738 0 0)
(0.131738 0 0)
(0.131738 0 0)
(0.131738 0 0)
(0.131738 0 0)
(0.131738 0 0)
(0.131738 0 0)
(0.131738 0 0)
(0.131738 0 0)
(0.131738 0 0)
(0.131738 0 0)
(0.131738 0 0)
(0.131738 0 0)
(0.131738 0 0)
(0.131738 0 0)
(0.131738 0 0)
(0.131738 0 0)
(0.131738 0 0)
(0.131738 0 0)
(0.131738 0 0)
(0.131738 0 0)
(0.131738 0 0)
(0.131738 0 0)
(0.131738 0 0)
(0.131738 0 0)
(0.131738 0 0)
(0.131738 0 0)
(0.131738 0 0)
(0.131738 0 0)
(0.131738 0 0)
(0.131738 0 0)
(0.131738 0 0)
(0.131738 0 0)
(0.131738 0 0)
(0.131738 0 0)
(0.131738 0 0)
(0.131738 0 0)
(0.131738 0 0)
(0.131738 0 0)
(0.131738 0 0)
(0.131738 0 0)
(0.131738 0 0)
(0.131738 0 0)
(0.131738 0 0)
(0.131738 0 0)
(0.131738 0 0)
(0.131738 0 0)
(0.131738 0 0)
(0.131738 0 0)
(0.131738 0 0)
(0.131738 0 0)
(0.131738 0 0)
(0.131738 0 0)
(0.131738 0 0)
(0.131738 0 0)
(0.131738 0 0)
(0.131738 0 0)
(0.131738 0 0)
(0.131738 0 0)
(0.131738 0 0)
(0.131738 0 0)
(0.131738 0 0)
(0.131738 0 0)
(0.131738 0 0)
(0.131738 0 0)
(0.131738 0 0)
(0.131738 0 0)
(0.131738 0 0)
(0.131738 0 0)
(0.131738 0 0)
(0.131738 0 0)
(0.131738 0 0)
(0.131738 0 0)
(0.131738 0 0)
(0.131738 0 0)
(0.131738 0 0)
(0.131738 0 0)
(0.131738 0 0)
(0.131738 0 0)
(0.131738 0 0)
(0.131738 0 0)
(0.131738 0 0)
(0.131738 0 0)
(0.131738 0 0)
(0.131738 0 0)
(0.131738 0 0)
(0.131738 0 0)
(0.131738 0 0)
(0.131738 0 0)
(0.131738 0 0)
(0.131738 0 0)
(0.131738 0 0)
(0.131738 0 0)
(0.131738 0 0)
(0.131738 0 0)
(0.131738 0 0)
(0.131738 0 0)
(0.131738 0 0)
(0.131738 0 0)
(0.131738 0 0)
(0.131738 0 0)
(0.131738 0 0)
(0.131738 0 0)
(0.131738 0 0)
(0.131738 0 0)
(0.131738 0 0)
(0.131738 0 0)
(0.131738 0 0)
(0.131738 0 0)
(0.131738 0 0)
(0.131738 0 0)
(0.131738 0 0)
(0.131738 0 0)
(0.131738 0 0)
(0.131738 0 0)
(0.131738 0 0)
(0.131738 0 0)
(0.131738 0 0)
(0.131738 0 0)
(0.131738 0 0)
(0.131738 0 0)
(0.131738 0 0)
(0.131738 0 0)
(0.131738 0 0)
(0.131738 0 0)
(0.131738 0 0)
(0.131738 0 0)
(0.131738 0 0)
(0.131738 0 0)
(0.131738 0 0)
(0.131738 0 0)
(0.131738 0 0)
(0.131738 0 0)
(0.131738 0 0)
(0.131738 0 0)
(0.131738 0 0)
(0.131738 0 0)
(0.131738 0 0)
(0.131738 0 0)
(0.131738 0 0)
(0.131738 0 0)
(0.131738 0 0)
(0.131738 0 0)
(0.131738 0 0)
(0.131738 0 0)
(0.131738 0 0)
(0.131738 0 0)
(0.131738 0 0)
(0.131738 0 0)
(0.131738 0 0)
(0.131738 0 0)
(0.131738 0 0)
(0.131738 0 0)
(0.131738 0 0)
(0.131738 0 0)
(0.131738 0 0)
(0.131738 0 0)
(0.131738 0 0)
(0.131738 0 0)
(0.131738 0 0)
(0.131738 0 0)
(0.131738 0 0)
(0.131738 0 0)
(0.131738 0 0)
(0.131738 0 0)
(0.131738 0 0)
(0.131738 0 0)
(0.131738 0 0)
(0.131738 0 0)
(0.131738 0 0)
(0.131738 0 0)
(0.131738 0 0)
(0.131738 0 0)
(0.131738 0 0)
(0.131738 0 0)
(0.131738 0 0)
(0.131738 0 0)
(0.131738 0 0)
(0.131738 0 0)
(0.131738 0 0)
(0.131738 0 0)
(0.131738 0 0)
(0.131738 0 0)
(0.131738 0 0)
(0.131738 0 0)
(0.131738 0 0)
(0.131738 0 0)
(0.131738 0 0)
(0.131738 0 0)
(0.131738 0 0)
(0.131738 0 0)
(0.131738 0 0)
(0.131738 0 0)
(0.131738 0 0)
(0.131738 0 0)
(0.131738 0 0)
(0.131738 0 0)
(0.131738 0 0)
(0.131738 0 0)
(0.131738 0 0)
(0.131738 0 0)
(0.131738 0 0)
(0.131738 0 0)
(0.131738 0 0)
(0.131738 0 0)
(0.131738 0 0)
(0.131738 0 0)
(0.131738 0 0)
(0.131738 0 0)
(0.131738 0 0)
(0.131738 0 0)
(0.131738 0 0)
(0.131738 0 0)
(0.131738 0 0)
(0.131738 0 0)
(0.131738 0 0)
(0.131738 0 0)
(0.131738 0 0)
(0.131738 0 0)
(0.131738 0 0)
(0.131738 0 0)
(0.131738 0 0)
(0.131738 0 0)
(0.131738 0 0)
(0.131738 0 0)
(0.131738 0 0)
(0.131738 0 0)
(0.131738 0 0)
(0.131738 0 0)
(0.131738 0 0)
(0.131738 0 0)
(0.131738 0 0)
(0.131738 0 0)
(0.131738 0 0)
(0.131738 0 0)
(0.131738 0 0)
(0.131738 0 0)
(0.131738 0 0)
(0.131738 0 0)
(0.131738 0 0)
(0.131738 0 0)
(0.131738 0 0)
(0.131738 0 0)
(0.131738 0 0)
(0.131738 0 0)
(0.131738 0 0)
(0.131738 0 0)
(0.131738 0 0)
(0.131738 0 0)
(0.131738 0 0)
(0.131738 0 0)
(0.131738 0 0)
(0.131738 0 0)
(0.131738 0 0)
(0.131738 0 0)
(0.131738 0 0)
(0.131738 0 0)
(0.131738 0 0)
(0.131738 0 0)
(0.131738 0 0)
(0.131738 0 0)
(0.131738 0 0)
(0.131738 0 0)
(0.131738 0 0)
(0.131738 0 0)
(0.131738 0 0)
(0.131738 0 0)
(0.131738 0 0)
(0.131738 0 0)
(0.131738 0 0)
(0.131738 0 0)
(0.131738 0 0)
(0.131738 0 0)
(0.131738 0 0)
(0.131738 0 0)
(0.131738 0 0)
(0.131738 0 0)
(0.131738 0 0)
(0.131738 0 0)
(0.131738 0 0)
(0.131738 0 0)
(0.131738 0 0)
(0.131738 0 0)
(0.131738 0 0)
(0.131738 0 0)
(0.131738 0 0)
(0.131738 0 0)
(0.131738 0 0)
(0.131738 0 0)
(0.131738 0 0)
(0.131738 0 0)
(0.131738 0 0)
(0.131738 0 0)
(0.131738 0 0)
(0.131738 0 0)
(0.131738 0 0)
(0.131738 0 0)
(0.131738 0 0)
(0.131738 0 0)
(0.131738 0 0)
(0.131738 0 0)
(0.131738 0 0)
(0.131738 0 0)
(0.131738 0 0)
(0.131738 0 0)
(0.131738 0 0)
(0.131738 0 0)
(0.131738 0 0)
(0.131738 0 0)
(0.131738 0 0)
(0.131738 0 0)
(0.131738 0 0)
(0.131738 0 0)
(0.131738 0 0)
(0.131738 0 0)
(0.131738 0 0)
(0.131738 0 0)
(0.131738 0 0)
(0.131738 0 0)
(0.131738 0 0)
(0.131738 0 0)
(0.131738 0 0)
(0.131738 0 0)
(0.131738 0 0)
(0.131738 0 0)
(0.131738 0 0)
(0.131738 0 0)
(0.131738 0 0)
(0.131738 0 0)
(0.131738 0 0)
(0.131738 0 0)
(0.131738 0 0)
(0.131738 0 0)
(0.131738 0 0)
(0.131738 0 0)
(0.131738 0 0)
(0.131738 0 0)
(0.131738 0 0)
(0.131738 0 0)
(0.131738 0 0)
(0.131738 0 0)
(0.131738 0 0)
(0.131738 0 0)
(0.131738 0 0)
(0.131738 0 0)
(0.131738 0 0)
(0.131738 0 0)
(0.131738 0 0)
(0.131738 0 0)
(0.131738 0 0)
(0.131738 0 0)
(0.131738 0 0)
(0.131738 0 0)
(0.131738 0 0)
(0.131738 0 0)
(0.131738 0 0)
(0.131738 0 0)
(0.131738 0 0)
(0.131738 0 0)
(0.131738 0 0)
(0.131738 0 0)
(0.131738 0 0)
(0.131738 0 0)
(0.131738 0 0)
(0.131738 0 0)
(0.131738 0 0)
(0.131738 0 0)
(0.131738 0 0)
(0.131738 0 0)
(0.131738 0 0)
(0.131738 0 0)
(0.131738 0 0)
(0.131738 0 0)
(0.131738 0 0)
(0.131738 0 0)
(0.131738 0 0)
(0.131738 0 0)
(0.131738 0 0)
(0.131738 0 0)
(0.131738 0 0)
(0.131738 0 0)
(0.131738 0 0)
(0.131738 0 0)
(0.131738 0 0)
(0.131738 0 0)
(0.131738 0 0)
(0.131738 0 0)
(0.131738 0 0)
(0.131738 0 0)
(0.131738 0 0)
(0.131738 0 0)
(0.131738 0 0)
(0.131738 0 0)
(0.131738 0 0)
(0.131738 0 0)
(0.131738 0 0)
(0.131738 0 0)
(0.131738 0 0)
(0.131738 0 0)
(0.131738 0 0)
(0.131738 0 0)
(0.131738 0 0)
(0.131738 0 0)
(0.131738 0 0)
(0.131738 0 0)
(0.131738 0 0)
(0.131738 0 0)
(0.131738 0 0)
(0.131738 0 0)
(0.131738 0 0)
(0.131738 0 0)
(0.131738 0 0)
(0.131738 0 0)
(0.131738 0 0)
(0.131738 0 0)
(0.131738 0 0)
(0.131738 0 0)
(0.131739 0 0)
(0.131737 0 0)
(0.131739 0 0)
(0.131737 0 0)
(0.131739 0 0)
(0.131737 0 0)
(0.131739 0 0)
(0.131737 0 0)
(0.131739 0 0)
(0.131737 0 0)
(0.131739 0 0)
(0.131737 0 0)
(0.131739 0 0)
(0.131737 0 0)
(0.131739 0 0)
(0.131736 0 0)
(0.13174 0 0)
(0.131736 0 0)
(0.13174 0 0)
(0.131736 0 0)
(0.13174 0 0)
(0.131736 0 0)
(0.13174 0 0)
(0.131735 0 0)
(0.131741 0 0)
(0.131735 0 0)
(0.131741 0 0)
(0.131734 0 0)
(0.131741 0 0)
(0.131734 0 0)
(0.131742 0 0)
(0.131733 0 0)
(0.131742 0 0)
(0.131733 0 0)
(0.131743 0 0)
(0.131732 0 0)
(0.131743 0 0)
(0.131731 0 0)
(0.131744 0 0)
(0.131731 0 0)
(0.131744 0 0)
(0.13173 0 0)
(0.131745 0 0)
(0.131729 0 0)
(0.131746 0 0)
(0.131728 0 0)
(0.131747 0 0)
(0.131727 0 0)
(0.131747 0 0)
(0.131725 0 0)
(0.131748 0 0)
(0.131724 0 0)
(0.131749 0 0)
(0.131723 0 0)
(0.13175 0 0)
(0.131721 0 0)
(0.131751 0 0)
(0.131719 0 0)
(0.131752 0 0)
(0.131718 0 0)
(0.131753 0 0)
(0.131716 0 0)
(0.131754 0 0)
(0.131714 0 0)
(0.131755 0 0)
(0.131712 0 0)
(0.131756 0 0)
(0.131709 0 0)
(0.131757 0 0)
(0.131707 0 0)
)
;

boundaryField
{
    topWall
    {
        type            empty;
    }
    bottomWall
    {
        type            empty;
    }
    leftAndRight_half1
    {
        type            cyclic;
    }
    leftAndRight_half0
    {
        type            cyclic;
    }
    frontAndBack
    {
        type            empty;
    }
}


// ************************************************************************* //
