/*--------------------------------*- C++ -*----------------------------------*\
  =========                 |
  \\      /  F ield         | OpenFOAM: The Open Source CFD Toolbox
   \\    /   O peration     | Website:  https://openfoam.org
    \\  /    A nd           | Version:  9
     \\/     M anipulation  |
\*---------------------------------------------------------------------------*/
FoamFile
{
    format      ascii;
    class       volScalarField;
    location    "0.5";
    object      f_4;
}
// * * * * * * * * * * * * * * * * * * * * * * * * * * * * * * * * * * * * * //

dimensions      [1 -3 0 0 0 0 0];

internalField   nonuniform List<scalar> 
120000
(
112.133
113.012
112.464
112.206
112.147
112.195
112.275
112.355
112.43
112.496
112.556
112.611
112.659
112.704
112.744
112.782
112.817
112.849
112.881
112.91
112.939
112.967
112.994
113.02
113.046
113.07
113.093
113.115
113.136
113.155
113.172
113.187
113.2
113.211
113.219
113.224
113.227
113.226
113.222
113.215
113.204
113.191
113.173
113.153
113.129
113.103
113.073
113.04
113.005
112.967
112.927
112.884
112.84
112.794
112.746
112.698
112.648
112.597
112.546
112.495
112.443
112.392
112.34
112.289
112.239
112.189
112.14
112.092
112.045
111.999
111.955
111.911
111.869
111.829
111.79
111.752
111.716
111.681
111.648
111.616
111.585
111.556
111.528
111.502
111.477
111.454
111.431
111.41
111.39
111.371
111.353
111.336
111.321
111.306
111.292
111.279
111.267
111.255
111.244
111.234
111.225
111.216
111.208
111.201
111.194
111.187
111.181
111.176
111.17
111.165
111.161
111.157
111.153
111.15
111.146
111.143
111.14
111.138
111.136
111.133
111.131
111.13
111.128
111.126
111.125
111.124
111.123
111.121
111.121
111.12
111.119
111.118
111.117
111.117
111.116
111.116
111.115
111.115
111.114
111.114
111.114
111.114
111.113
111.113
111.113
111.113
111.112
111.112
111.112
111.112
111.112
111.112
111.112
111.112
111.112
111.112
111.112
111.111
111.111
111.111
111.111
111.111
111.111
111.111
111.111
111.111
111.111
111.111
111.111
111.111
111.111
111.111
111.111
111.111
111.111
111.111
111.111
111.111
111.111
111.111
111.111
111.111
111.111
111.111
111.111
111.111
111.111
111.111
111.111
111.111
111.111
111.111
111.111
111.111
111.111
111.111
111.111
111.111
111.111
111.111
111.111
111.111
111.111
111.111
111.111
111.111
111.111
111.111
111.111
111.111
111.111
111.111
111.111
111.111
111.111
111.111
111.111
111.111
111.111
111.111
111.111
111.111
111.111
111.111
111.111
111.111
111.111
111.111
111.111
111.111
111.111
111.111
111.111
111.111
111.111
111.111
111.111
111.111
111.111
111.111
111.111
111.111
111.111
111.111
111.111
111.111
111.111
111.111
111.111
111.111
111.111
111.111
111.111
111.111
111.111
111.111
111.111
111.111
111.111
111.111
111.111
111.111
111.111
111.111
111.111
111.111
111.111
111.111
111.111
111.111
111.111
111.111
111.111
111.111
111.111
111.111
111.111
111.111
111.111
111.111
111.111
111.111
111.111
111.111
111.111
111.111
111.111
111.111
111.111
111.111
111.111
111.111
111.111
111.111
111.111
111.111
111.111
111.111
111.111
111.111
111.111
111.111
111.111
111.111
111.111
111.111
111.111
111.111
111.111
111.111
111.111
111.111
111.111
111.111
111.111
111.111
111.111
111.111
111.111
111.111
111.111
111.111
111.111
111.111
111.111
111.111
111.111
111.111
111.111
111.111
111.111
111.111
111.111
111.111
111.111
111.111
111.111
111.111
111.111
111.111
111.111
111.111
111.111
111.111
111.111
111.111
111.111
111.111
111.111
111.111
111.111
111.111
111.111
111.111
111.111
111.111
111.111
111.111
111.111
111.111
111.111
111.111
111.111
111.111
111.111
111.111
111.111
111.111
111.111
111.111
111.111
111.111
111.111
111.111
111.111
111.111
111.111
111.111
111.111
111.111
111.111
111.111
111.111
111.111
111.111
111.111
111.111
111.111
111.111
111.111
111.111
111.111
111.111
111.111
111.111
111.111
111.111
111.111
111.111
111.111
111.111
111.111
111.111
111.111
111.111
111.111
111.111
111.111
111.111
111.111
111.111
111.111
111.111
111.111
111.111
111.111
111.111
111.111
111.111
111.111
111.111
111.111
111.111
111.111
111.111
111.111
111.111
111.111
111.111
111.111
111.111
111.111
111.111
111.111
111.111
111.111
111.111
111.111
111.111
111.111
111.111
111.111
111.111
111.111
111.111
111.111
111.111
111.111
111.111
111.111
111.111
111.111
111.111
111.111
111.111
111.111
111.111
111.111
111.111
111.111
111.111
111.111
111.111
111.111
111.111
111.111
111.111
111.111
111.111
111.111
111.111
111.111
111.111
111.111
111.111
111.111
111.111
111.111
111.111
111.111
111.111
111.111
111.111
111.111
111.111
111.111
111.111
111.111
111.111
111.111
111.111
111.111
111.111
111.111
111.111
111.111
111.111
111.111
111.111
111.111
111.111
111.111
111.111
111.111
111.111
111.111
111.111
111.111
111.111
111.111
111.111
111.111
111.111
111.111
111.111
111.111
111.111
111.111
111.111
111.111
111.111
111.111
111.111
111.111
111.111
111.111
111.111
111.111
111.111
111.111
111.111
111.111
111.111
111.111
111.111
111.111
111.111
111.111
111.111
111.111
111.111
111.111
111.111
111.111
111.111
111.111
111.111
111.111
111.111
111.111
111.111
111.111
111.111
111.111
111.111
111.111
111.11
111.11
111.11
111.11
111.11
111.109
111.109
111.108
111.108
111.107
111.106
111.105
111.104
111.102
111.1
111.097
111.094
111.089
111.084
111.078
111.071
111.061
111.05
111.036
111.019
110.998
110.973
110.943
110.906
110.863
110.812
110.753
110.689
110.623
110.568
110.546
110.597
110.783
111.185
111.883
112.926
114.153
116.046
114.515
110.399
109.823
109.619
109.966
110.325
110.664
110.975
111.262
111.524
111.76
111.97
112.155
112.319
112.463
112.591
112.705
112.807
112.899
112.983
113.06
113.131
113.196
113.257
113.315
113.368
113.419
113.466
113.509
113.55
113.587
113.62
113.65
113.676
113.698
113.715
113.728
113.737
113.741
113.739
113.734
113.723
113.707
113.687
113.661
113.632
113.598
113.559
113.517
113.471
113.422
113.37
113.315
113.257
113.197
113.136
113.073
113.009
112.943
112.878
112.812
112.746
112.68
112.615
112.55
112.486
112.423
112.362
112.301
112.243
112.185
112.13
112.076
112.024
111.974
111.926
111.879
111.835
111.792
111.751
111.712
111.675
111.64
111.606
111.575
111.544
111.516
111.489
111.463
111.439
111.417
111.396
111.375
111.357
111.339
111.323
111.307
111.293
111.279
111.266
111.255
111.244
111.233
111.224
111.215
111.207
111.199
111.192
111.185
111.179
111.174
111.169
111.164
111.159
111.155
111.151
111.148
111.145
111.142
111.139
111.137
111.134
111.132
111.13
111.128
111.127
111.125
111.124
111.123
111.122
111.121
111.12
111.119
111.118
111.117
111.117
111.116
111.116
111.115
111.115
111.114
111.114
111.114
111.114
111.113
111.113
111.113
111.113
111.112
111.112
111.112
111.112
111.112
111.112
111.112
111.112
111.112
111.112
111.112
111.111
111.111
111.111
111.111
111.111
111.111
111.111
111.111
111.111
111.111
111.111
111.111
111.111
111.111
111.111
111.111
111.111
111.111
111.111
111.111
111.111
111.111
111.111
111.111
111.111
111.111
111.111
111.111
111.111
111.111
111.111
111.111
111.111
111.111
111.111
111.111
111.111
111.111
111.111
111.111
111.111
111.111
111.111
111.111
111.111
111.111
111.111
111.111
111.111
111.111
111.111
111.111
111.111
111.111
111.111
111.111
111.111
111.111
111.111
111.111
111.111
111.111
111.111
111.111
111.111
111.111
111.111
111.111
111.111
111.111
111.111
111.111
111.111
111.111
111.111
111.111
111.111
111.111
111.111
111.111
111.111
111.111
111.111
111.111
111.111
111.111
111.111
111.111
111.111
111.111
111.111
111.111
111.111
111.111
111.111
111.111
111.111
111.111
111.111
111.111
111.111
111.111
111.111
111.111
111.111
111.111
111.111
111.111
111.111
111.111
111.111
111.111
111.111
111.111
111.111
111.111
111.111
111.111
111.111
111.111
111.111
111.111
111.111
111.111
111.111
111.111
111.111
111.111
111.111
111.111
111.111
111.111
111.111
111.111
111.111
111.111
111.111
111.111
111.111
111.111
111.111
111.111
111.111
111.111
111.111
111.111
111.111
111.111
111.111
111.111
111.111
111.111
111.111
111.111
111.111
111.111
111.111
111.111
111.111
111.111
111.111
111.111
111.111
111.111
111.111
111.111
111.111
111.111
111.111
111.111
111.111
111.111
111.111
111.111
111.111
111.111
111.111
111.111
111.111
111.111
111.111
111.111
111.111
111.111
111.111
111.111
111.111
111.111
111.111
111.111
111.111
111.111
111.111
111.111
111.111
111.111
111.111
111.111
111.111
111.111
111.111
111.111
111.111
111.111
111.111
111.111
111.111
111.111
111.111
111.111
111.111
111.111
111.111
111.111
111.111
111.111
111.111
111.111
111.111
111.111
111.111
111.111
111.111
111.111
111.111
111.111
111.111
111.111
111.111
111.111
111.111
111.111
111.111
111.111
111.111
111.111
111.111
111.111
111.111
111.111
111.111
111.111
111.111
111.111
111.111
111.111
111.111
111.111
111.111
111.111
111.111
111.111
111.111
111.111
111.111
111.111
111.111
111.111
111.111
111.111
111.111
111.111
111.111
111.111
111.111
111.111
111.111
111.111
111.111
111.111
111.111
111.111
111.111
111.111
111.111
111.111
111.111
111.111
111.111
111.111
111.111
111.111
111.111
111.111
111.111
111.111
111.111
111.111
111.111
111.111
111.111
111.111
111.111
111.111
111.111
111.111
111.111
111.111
111.111
111.111
111.111
111.111
111.111
111.111
111.111
111.111
111.111
111.111
111.111
111.111
111.111
111.111
111.111
111.111
111.111
111.111
111.111
111.111
111.111
111.111
111.111
111.111
111.111
111.111
111.111
111.111
111.111
111.111
111.111
111.111
111.111
111.111
111.111
111.111
111.111
111.111
111.111
111.111
111.111
111.111
111.111
111.111
111.111
111.111
111.111
111.111
111.111
111.111
111.111
111.111
111.111
111.111
111.111
111.111
111.111
111.111
111.111
111.111
111.111
111.111
111.111
111.111
111.111
111.111
111.111
111.111
111.111
111.111
111.111
111.111
111.111
111.111
111.111
111.111
111.111
111.111
111.111
111.111
111.111
111.111
111.111
111.111
111.111
111.111
111.111
111.111
111.111
111.111
111.111
111.111
111.111
111.111
111.111
111.111
111.111
111.111
111.111
111.111
111.111
111.11
111.11
111.11
111.11
111.109
111.109
111.109
111.108
111.107
111.106
111.105
111.104
111.102
111.1
111.097
111.094
111.09
111.084
111.078
111.07
111.059
111.046
111.03
111.01
110.984
110.952
110.912
110.861
110.797
110.717
110.618
110.495
110.347
110.176
109.99
109.818
109.722
109.81
110.262
111.252
113.064
115.682
116.506
109.187
108.901
108.554
108.885
109.334
109.799
110.235
110.637
111.004
111.335
111.632
111.897
112.133
112.342
112.529
112.697
112.847
112.984
113.108
113.222
113.327
113.425
113.515
113.6
113.679
113.753
113.821
113.885
113.944
113.998
114.047
114.091
114.129
114.162
114.189
114.21
114.225
114.234
114.237
114.233
114.222
114.206
114.183
114.154
114.12
114.08
114.034
113.984
113.929
113.87
113.806
113.74
113.67
113.598
113.524
113.448
113.37
113.291
113.212
113.132
113.053
112.974
112.895
112.817
112.741
112.665
112.592
112.519
112.449
112.381
112.314
112.25
112.188
112.129
112.071
112.016
111.963
111.912
111.864
111.818
111.774
111.732
111.693
111.655
111.62
111.586
111.554
111.524
111.496
111.469
111.444
111.42
111.398
111.378
111.358
111.34
111.323
111.307
111.292
111.279
111.266
111.254
111.243
111.232
111.223
111.214
111.205
111.198
111.191
111.184
111.178
111.172
111.167
111.162
111.158
111.154
111.15
111.147
111.144
111.141
111.138
111.136
111.133
111.131
111.129
111.128
111.126
111.125
111.123
111.122
111.121
111.12
111.119
111.118
111.118
111.117
111.116
111.116
111.115
111.115
111.115
111.114
111.114
111.114
111.113
111.113
111.113
111.113
111.113
111.112
111.112
111.112
111.112
111.112
111.112
111.112
111.112
111.112
111.112
111.111
111.111
111.111
111.111
111.111
111.111
111.111
111.111
111.111
111.111
111.111
111.111
111.111
111.111
111.111
111.111
111.111
111.111
111.111
111.111
111.111
111.111
111.111
111.111
111.111
111.111
111.111
111.111
111.111
111.111
111.111
111.111
111.111
111.111
111.111
111.111
111.111
111.111
111.111
111.111
111.111
111.111
111.111
111.111
111.111
111.111
111.111
111.111
111.111
111.111
111.111
111.111
111.111
111.111
111.111
111.111
111.111
111.111
111.111
111.111
111.111
111.111
111.111
111.111
111.111
111.111
111.111
111.111
111.111
111.111
111.111
111.111
111.111
111.111
111.111
111.111
111.111
111.111
111.111
111.111
111.111
111.111
111.111
111.111
111.111
111.111
111.111
111.111
111.111
111.111
111.111
111.111
111.111
111.111
111.111
111.111
111.111
111.111
111.111
111.111
111.111
111.111
111.111
111.111
111.111
111.111
111.111
111.111
111.111
111.111
111.111
111.111
111.111
111.111
111.111
111.111
111.111
111.111
111.111
111.111
111.111
111.111
111.111
111.111
111.111
111.111
111.111
111.111
111.111
111.111
111.111
111.111
111.111
111.111
111.111
111.111
111.111
111.111
111.111
111.111
111.111
111.111
111.111
111.111
111.111
111.111
111.111
111.111
111.111
111.111
111.111
111.111
111.111
111.111
111.111
111.111
111.111
111.111
111.111
111.111
111.111
111.111
111.111
111.111
111.111
111.111
111.111
111.111
111.111
111.111
111.111
111.111
111.111
111.111
111.111
111.111
111.111
111.111
111.111
111.111
111.111
111.111
111.111
111.111
111.111
111.111
111.111
111.111
111.111
111.111
111.111
111.111
111.111
111.111
111.111
111.111
111.111
111.111
111.111
111.111
111.111
111.111
111.111
111.111
111.111
111.111
111.111
111.111
111.111
111.111
111.111
111.111
111.111
111.111
111.111
111.111
111.111
111.111
111.111
111.111
111.111
111.111
111.111
111.111
111.111
111.111
111.111
111.111
111.111
111.111
111.111
111.111
111.111
111.111
111.111
111.111
111.111
111.111
111.111
111.111
111.111
111.111
111.111
111.111
111.111
111.111
111.111
111.111
111.111
111.111
111.111
111.111
111.111
111.111
111.111
111.111
111.111
111.111
111.111
111.111
111.111
111.111
111.111
111.111
111.111
111.111
111.111
111.111
111.111
111.111
111.111
111.111
111.111
111.111
111.111
111.111
111.111
111.111
111.111
111.111
111.111
111.111
111.111
111.111
111.111
111.111
111.111
111.111
111.111
111.111
111.111
111.111
111.111
111.111
111.111
111.111
111.111
111.111
111.111
111.111
111.111
111.111
111.111
111.111
111.111
111.111
111.111
111.111
111.111
111.111
111.111
111.111
111.111
111.111
111.111
111.111
111.111
111.111
111.111
111.111
111.111
111.111
111.111
111.111
111.111
111.111
111.111
111.111
111.111
111.111
111.111
111.111
111.111
111.111
111.111
111.111
111.111
111.111
111.111
111.111
111.111
111.111
111.111
111.111
111.111
111.111
111.111
111.111
111.111
111.111
111.111
111.111
111.111
111.111
111.111
111.111
111.111
111.111
111.111
111.111
111.111
111.111
111.111
111.111
111.111
111.111
111.111
111.111
111.111
111.111
111.111
111.111
111.111
111.111
111.111
111.111
111.111
111.111
111.111
111.111
111.111
111.111
111.111
111.111
111.111
111.111
111.111
111.111
111.111
111.111
111.111
111.111
111.111
111.111
111.111
111.111
111.111
111.11
111.11
111.11
111.11
111.11
111.109
111.109
111.108
111.108
111.107
111.106
111.104
111.103
111.101
111.098
111.095
111.091
111.087
111.08
111.073
111.063
111.051
111.035
111.016
110.991
110.959
110.918
110.866
110.8
110.714
110.605
110.466
110.289
110.067
109.795
109.474
109.123
108.793
108.59
108.728
109.401
111.32
113.424
119.189
109.285
108.589
107.898
107.977
108.342
108.823
109.321
109.799
110.248
110.663
111.045
111.392
111.707
111.991
112.248
112.48
112.691
112.883
113.059
113.22
113.369
113.507
113.635
113.754
113.866
113.969
114.066
114.155
114.238
114.313
114.382
114.444
114.498
114.546
114.585
114.617
114.641
114.657
114.665
114.664
114.656
114.64
114.617
114.586
114.547
114.502
114.451
114.393
114.33
114.261
114.188
114.111
114.031
113.947
113.86
113.772
113.682
113.591
113.499
113.407
113.315
113.223
113.133
113.043
112.955
112.868
112.783
112.701
112.62
112.542
112.466
112.393
112.322
112.254
112.189
112.126
112.066
112.009
111.954
111.902
111.853
111.805
111.761
111.718
111.678
111.64
111.605
111.571
111.539
111.509
111.481
111.455
111.43
111.407
111.385
111.365
111.346
111.328
111.312
111.296
111.282
111.269
111.256
111.245
111.234
111.224
111.215
111.207
111.199
111.191
111.185
111.178
111.173
111.167
111.163
111.158
111.154
111.15
111.147
111.144
111.141
111.138
111.135
111.133
111.131
111.129
111.128
111.126
111.125
111.123
111.122
111.121
111.12
111.119
111.118
111.118
111.117
111.116
111.116
111.115
111.115
111.115
111.114
111.114
111.114
111.113
111.113
111.113
111.113
111.112
111.112
111.112
111.112
111.112
111.112
111.112
111.112
111.112
111.112
111.112
111.111
111.111
111.111
111.111
111.111
111.111
111.111
111.111
111.111
111.111
111.111
111.111
111.111
111.111
111.111
111.111
111.111
111.111
111.111
111.111
111.111
111.111
111.111
111.111
111.111
111.111
111.111
111.111
111.111
111.111
111.111
111.111
111.111
111.111
111.111
111.111
111.111
111.111
111.111
111.111
111.111
111.111
111.111
111.111
111.111
111.111
111.111
111.111
111.111
111.111
111.111
111.111
111.111
111.111
111.111
111.111
111.111
111.111
111.111
111.111
111.111
111.111
111.111
111.111
111.111
111.111
111.111
111.111
111.111
111.111
111.111
111.111
111.111
111.111
111.111
111.111
111.111
111.111
111.111
111.111
111.111
111.111
111.111
111.111
111.111
111.111
111.111
111.111
111.111
111.111
111.111
111.111
111.111
111.111
111.111
111.111
111.111
111.111
111.111
111.111
111.111
111.111
111.111
111.111
111.111
111.111
111.111
111.111
111.111
111.111
111.111
111.111
111.111
111.111
111.111
111.111
111.111
111.111
111.111
111.111
111.111
111.111
111.111
111.111
111.111
111.111
111.111
111.111
111.111
111.111
111.111
111.111
111.111
111.111
111.111
111.111
111.111
111.111
111.111
111.111
111.111
111.111
111.111
111.111
111.111
111.111
111.111
111.111
111.111
111.111
111.111
111.111
111.111
111.111
111.111
111.111
111.111
111.111
111.111
111.111
111.111
111.111
111.111
111.111
111.111
111.111
111.111
111.111
111.111
111.111
111.111
111.111
111.111
111.111
111.111
111.111
111.111
111.111
111.111
111.111
111.111
111.111
111.111
111.111
111.111
111.111
111.111
111.111
111.111
111.111
111.111
111.111
111.111
111.111
111.111
111.111
111.111
111.111
111.111
111.111
111.111
111.111
111.111
111.111
111.111
111.111
111.111
111.111
111.111
111.111
111.111
111.111
111.111
111.111
111.111
111.111
111.111
111.111
111.111
111.111
111.111
111.111
111.111
111.111
111.111
111.111
111.111
111.111
111.111
111.111
111.111
111.111
111.111
111.111
111.111
111.111
111.111
111.111
111.111
111.111
111.111
111.111
111.111
111.111
111.111
111.111
111.111
111.111
111.111
111.111
111.111
111.111
111.111
111.111
111.111
111.111
111.111
111.111
111.111
111.111
111.111
111.111
111.111
111.111
111.111
111.111
111.111
111.111
111.111
111.111
111.111
111.111
111.111
111.111
111.111
111.111
111.111
111.111
111.111
111.111
111.111
111.111
111.111
111.111
111.111
111.111
111.111
111.111
111.111
111.111
111.111
111.111
111.111
111.111
111.111
111.111
111.111
111.111
111.111
111.111
111.111
111.111
111.111
111.111
111.111
111.111
111.111
111.111
111.111
111.111
111.111
111.111
111.111
111.111
111.111
111.111
111.111
111.111
111.111
111.111
111.111
111.111
111.111
111.111
111.111
111.111
111.111
111.111
111.111
111.111
111.111
111.111
111.111
111.111
111.111
111.111
111.111
111.111
111.111
111.111
111.111
111.111
111.111
111.111
111.111
111.111
111.111
111.111
111.111
111.111
111.111
111.111
111.111
111.111
111.111
111.111
111.111
111.111
111.111
111.111
111.111
111.111
111.111
111.111
111.111
111.111
111.111
111.111
111.111
111.111
111.111
111.111
111.111
111.111
111.111
111.111
111.111
111.111
111.111
111.111
111.111
111.111
111.111
111.111
111.111
111.111
111.111
111.111
111.111
111.111
111.111
111.111
111.111
111.111
111.111
111.111
111.11
111.11
111.11
111.11
111.11
111.109
111.109
111.108
111.108
111.107
111.106
111.104
111.103
111.101
111.098
111.095
111.091
111.085
111.079
111.07
111.06
111.046
111.029
111.007
110.978
110.941
110.893
110.83
110.748
110.642
110.503
110.322
110.087
109.783
109.396
108.915
108.34
107.702
107.078
106.691
106.703
108.415
109.01
122.729
109.438
108.659
107.782
107.589
107.753
108.131
108.599
109.088
109.569
110.028
110.46
110.863
111.236
111.579
111.894
112.182
112.447
112.691
112.916
113.123
113.316
113.495
113.661
113.817
113.962
114.097
114.224
114.341
114.449
114.548
114.639
114.721
114.793
114.857
114.91
114.955
114.989
115.014
115.029
115.034
115.03
115.016
114.993
114.961
114.92
114.871
114.815
114.751
114.681
114.605
114.523
114.437
114.346
114.252
114.155
114.056
113.955
113.853
113.75
113.646
113.543
113.441
113.339
113.239
113.14
113.044
112.949
112.857
112.768
112.681
112.597
112.516
112.437
112.362
112.29
112.221
112.154
112.091
112.031
111.974
111.919
111.867
111.818
111.772
111.728
111.686
111.647
111.61
111.576
111.543
111.512
111.484
111.457
111.431
111.408
111.386
111.365
111.346
111.328
111.311
111.296
111.281
111.268
111.255
111.244
111.233
111.223
111.214
111.205
111.198
111.19
111.184
111.177
111.172
111.166
111.162
111.157
111.153
111.149
111.146
111.143
111.14
111.137
111.135
111.133
111.131
111.129
111.127
111.126
111.124
111.123
111.122
111.121
111.12
111.119
111.118
111.117
111.117
111.116
111.116
111.115
111.115
111.114
111.114
111.114
111.113
111.113
111.113
111.113
111.113
111.112
111.112
111.112
111.112
111.112
111.112
111.112
111.112
111.112
111.112
111.111
111.111
111.111
111.111
111.111
111.111
111.111
111.111
111.111
111.111
111.111
111.111
111.111
111.111
111.111
111.111
111.111
111.111
111.111
111.111
111.111
111.111
111.111
111.111
111.111
111.111
111.111
111.111
111.111
111.111
111.111
111.111
111.111
111.111
111.111
111.111
111.111
111.111
111.111
111.111
111.111
111.111
111.111
111.111
111.111
111.111
111.111
111.111
111.111
111.111
111.111
111.111
111.111
111.111
111.111
111.111
111.111
111.111
111.111
111.111
111.111
111.111
111.111
111.111
111.111
111.111
111.111
111.111
111.111
111.111
111.111
111.111
111.111
111.111
111.111
111.111
111.111
111.111
111.111
111.111
111.111
111.111
111.111
111.111
111.111
111.111
111.111
111.111
111.111
111.111
111.111
111.111
111.111
111.111
111.111
111.111
111.111
111.111
111.111
111.111
111.111
111.111
111.111
111.111
111.111
111.111
111.111
111.111
111.111
111.111
111.111
111.111
111.111
111.111
111.111
111.111
111.111
111.111
111.111
111.111
111.111
111.111
111.111
111.111
111.111
111.111
111.111
111.111
111.111
111.111
111.111
111.111
111.111
111.111
111.111
111.111
111.111
111.111
111.111
111.111
111.111
111.111
111.111
111.111
111.111
111.111
111.111
111.111
111.111
111.111
111.111
111.111
111.111
111.111
111.111
111.111
111.111
111.111
111.111
111.111
111.111
111.111
111.111
111.111
111.111
111.111
111.111
111.111
111.111
111.111
111.111
111.111
111.111
111.111
111.111
111.111
111.111
111.111
111.111
111.111
111.111
111.111
111.111
111.111
111.111
111.111
111.111
111.111
111.111
111.111
111.111
111.111
111.111
111.111
111.111
111.111
111.111
111.111
111.111
111.111
111.111
111.111
111.111
111.111
111.111
111.111
111.111
111.111
111.111
111.111
111.111
111.111
111.111
111.111
111.111
111.111
111.111
111.111
111.111
111.111
111.111
111.111
111.111
111.111
111.111
111.111
111.111
111.111
111.111
111.111
111.111
111.111
111.111
111.111
111.111
111.111
111.111
111.111
111.111
111.111
111.111
111.111
111.111
111.111
111.111
111.111
111.111
111.111
111.111
111.111
111.111
111.111
111.111
111.111
111.111
111.111
111.111
111.111
111.111
111.111
111.111
111.111
111.111
111.111
111.111
111.111
111.111
111.111
111.111
111.111
111.111
111.111
111.111
111.111
111.111
111.111
111.111
111.111
111.111
111.111
111.111
111.111
111.111
111.111
111.111
111.111
111.111
111.111
111.111
111.111
111.111
111.111
111.111
111.111
111.111
111.111
111.111
111.111
111.111
111.111
111.111
111.111
111.111
111.111
111.111
111.111
111.111
111.111
111.111
111.111
111.111
111.111
111.111
111.111
111.111
111.111
111.111
111.111
111.111
111.111
111.111
111.111
111.111
111.111
111.111
111.111
111.111
111.111
111.111
111.111
111.111
111.111
111.111
111.111
111.111
111.111
111.111
111.111
111.111
111.111
111.111
111.111
111.111
111.111
111.111
111.111
111.111
111.111
111.111
111.111
111.111
111.111
111.111
111.111
111.111
111.111
111.111
111.111
111.111
111.111
111.111
111.111
111.111
111.111
111.111
111.111
111.111
111.111
111.111
111.111
111.111
111.111
111.111
111.111
111.111
111.111
111.111
111.111
111.111
111.111
111.111
111.111
111.111
111.111
111.111
111.111
111.111
111.111
111.111
111.111
111.111
111.111
111.111
111.111
111.111
111.111
111.11
111.11
111.11
111.11
111.11
111.109
111.109
111.108
111.108
111.107
111.106
111.104
111.103
111.101
111.098
111.095
111.09
111.085
111.078
111.069
111.058
111.044
111.025
111.001
110.969
110.928
110.874
110.803
110.71
110.586
110.423
110.206
109.92
109.544
109.054
108.426
107.639
106.695
105.631
104.645
103.806
105.051
103.137
126.905
109.674
108.86
107.913
107.52
107.472
107.686
108.054
108.497
108.966
109.434
109.888
110.323
110.734
111.12
111.481
111.817
112.129
112.419
112.689
112.941
113.176
113.395
113.6
113.792
113.972
114.141
114.298
114.444
114.579
114.704
114.818
114.921
115.013
115.094
115.164
115.222
115.269
115.304
115.328
115.34
115.341
115.33
115.309
115.277
115.236
115.185
115.125
115.057
114.981
114.899
114.81
114.716
114.617
114.514
114.408
114.299
114.188
114.076
113.964
113.85
113.738
113.626
113.515
113.405
113.298
113.192
113.089
112.989
112.892
112.797
112.706
112.618
112.533
112.452
112.374
112.299
112.227
112.159
112.094
112.032
111.974
111.918
111.865
111.815
111.768
111.724
111.682
111.642
111.605
111.57
111.537
111.507
111.478
111.451
111.426
111.402
111.38
111.36
111.341
111.323
111.307
111.291
111.277
111.264
111.251
111.24
111.229
111.22
111.211
111.202
111.195
111.188
111.181
111.175
111.169
111.164
111.16
111.155
111.151
111.148
111.144
111.141
111.139
111.136
111.134
111.132
111.13
111.128
111.126
111.125
111.123
111.122
111.121
111.12
111.119
111.118
111.118
111.117
111.116
111.116
111.115
111.115
111.114
111.114
111.114
111.114
111.113
111.113
111.113
111.113
111.112
111.112
111.112
111.112
111.112
111.112
111.112
111.112
111.112
111.112
111.111
111.111
111.111
111.111
111.111
111.111
111.111
111.111
111.111
111.111
111.111
111.111
111.111
111.111
111.111
111.111
111.111
111.111
111.111
111.111
111.111
111.111
111.111
111.111
111.111
111.111
111.111
111.111
111.111
111.111
111.111
111.111
111.111
111.111
111.111
111.111
111.111
111.111
111.111
111.111
111.111
111.111
111.111
111.111
111.111
111.111
111.111
111.111
111.111
111.111
111.111
111.111
111.111
111.111
111.111
111.111
111.111
111.111
111.111
111.111
111.111
111.111
111.111
111.111
111.111
111.111
111.111
111.111
111.111
111.111
111.111
111.111
111.111
111.111
111.111
111.111
111.111
111.111
111.111
111.111
111.111
111.111
111.111
111.111
111.111
111.111
111.111
111.111
111.111
111.111
111.111
111.111
111.111
111.111
111.111
111.111
111.111
111.111
111.111
111.111
111.111
111.111
111.111
111.111
111.111
111.111
111.111
111.111
111.111
111.111
111.111
111.111
111.111
111.111
111.111
111.111
111.111
111.111
111.111
111.111
111.111
111.111
111.111
111.111
111.111
111.111
111.111
111.111
111.111
111.111
111.111
111.111
111.111
111.111
111.111
111.111
111.111
111.111
111.111
111.111
111.111
111.111
111.111
111.111
111.111
111.111
111.111
111.111
111.111
111.111
111.111
111.111
111.111
111.111
111.111
111.111
111.111
111.111
111.111
111.111
111.111
111.111
111.111
111.111
111.111
111.111
111.111
111.111
111.111
111.111
111.111
111.111
111.111
111.111
111.111
111.111
111.111
111.111
111.111
111.111
111.111
111.111
111.111
111.111
111.111
111.111
111.111
111.111
111.111
111.111
111.111
111.111
111.111
111.111
111.111
111.111
111.111
111.111
111.111
111.111
111.111
111.111
111.111
111.111
111.111
111.111
111.111
111.111
111.111
111.111
111.111
111.111
111.111
111.111
111.111
111.111
111.111
111.111
111.111
111.111
111.111
111.111
111.111
111.111
111.111
111.111
111.111
111.111
111.111
111.111
111.111
111.111
111.111
111.111
111.111
111.111
111.111
111.111
111.111
111.111
111.111
111.111
111.111
111.111
111.111
111.111
111.111
111.111
111.111
111.111
111.111
111.111
111.111
111.111
111.111
111.111
111.111
111.111
111.111
111.111
111.111
111.111
111.111
111.111
111.111
111.111
111.111
111.111
111.111
111.111
111.111
111.111
111.111
111.111
111.111
111.111
111.111
111.111
111.111
111.111
111.111
111.111
111.111
111.111
111.111
111.111
111.111
111.111
111.111
111.111
111.111
111.111
111.111
111.111
111.111
111.111
111.111
111.111
111.111
111.111
111.111
111.111
111.111
111.111
111.111
111.111
111.111
111.111
111.111
111.111
111.111
111.111
111.111
111.111
111.111
111.111
111.111
111.111
111.111
111.111
111.111
111.111
111.111
111.111
111.111
111.111
111.111
111.111
111.111
111.111
111.111
111.111
111.111
111.111
111.111
111.111
111.111
111.111
111.111
111.111
111.111
111.111
111.111
111.111
111.111
111.111
111.111
111.111
111.111
111.111
111.111
111.111
111.111
111.111
111.111
111.111
111.111
111.111
111.111
111.111
111.111
111.111
111.111
111.111
111.111
111.111
111.111
111.111
111.111
111.111
111.111
111.111
111.111
111.111
111.111
111.111
111.111
111.111
111.111
111.111
111.111
111.111
111.111
111.111
111.111
111.111
111.111
111.111
111.111
111.111
111.111
111.111
111.111
111.111
111.111
111.111
111.11
111.11
111.11
111.11
111.11
111.109
111.109
111.108
111.108
111.107
111.106
111.105
111.103
111.101
111.098
111.095
111.091
111.085
111.079
111.07
111.058
111.044
111.024
110.999
110.967
110.923
110.866
110.791
110.69
110.556
110.376
110.136
109.816
109.389
108.825
108.087
107.136
105.946
104.511
102.996
101.329
102.014
96.9203
130.827
109.898
109.096
108.156
107.652
107.44
107.486
107.72
108.073
108.489
108.932
109.38
109.822
110.251
110.662
111.053
111.422
111.771
112.1
112.408
112.698
112.971
113.228
113.469
113.696
113.91
114.11
114.298
114.473
114.636
114.786
114.924
115.049
115.162
115.262
115.348
115.422
115.482
115.529
115.562
115.582
115.59
115.584
115.566
115.537
115.496
115.444
115.382
115.311
115.231
115.144
115.05
114.95
114.844
114.734
114.62
114.503
114.385
114.264
114.143
114.022
113.901
113.78
113.661
113.544
113.429
113.316
113.206
113.099
112.995
112.894
112.797
112.703
112.613
112.526
112.443
112.363
112.287
112.215
112.146
112.08
112.018
111.959
111.903
111.851
111.801