/*--------------------------------*- C++ -*----------------------------------*\
  =========                 |
  \\      /  F ield         | OpenFOAM: The Open Source CFD Toolbox
   \\    /   O peration     | Website:  https://openfoam.org
    \\  /    A nd           | Version:  9
     \\/     M anipulation  |
\*---------------------------------------------------------------------------*/
FoamFile
{
    format      ascii;
    class       volScalarField;
    location    "0.5";
    object      f_6;
}
// * * * * * * * * * * * * * * * * * * * * * * * * * * * * * * * * * * * * * //

dimensions      [1 -3 0 0 0 0 0];

internalField   nonuniform List<scalar> 
120000
(
34.7371
31.638
30.8588
30.3299
30.0362
29.8329
29.6739
29.5399
29.4246
29.3248
29.2382
29.1628
29.0965
29.0381
28.9864
28.9404
28.8993
28.8626
28.8297
28.8001
28.7734
28.7493
28.7276
28.7078
28.6898
28.6734
28.6584
28.6445
28.6317
28.6197
28.6085
28.5978
28.5876
28.5778
28.5682
28.5587
28.5492
28.5396
28.5299
28.52
28.5098
28.4993
28.4883
28.4769
28.4651
28.4528
28.44
28.4267
28.4129
28.3986
28.3839
28.3687
28.3532
28.3373
28.3211
28.3046
28.2879
28.2711
28.2541
28.2371
28.2201
28.2031
28.1862
28.1695
28.1529
28.1366
28.1205
28.1047
28.0893
28.0742
28.0595
28.0452
28.0313
28.0179
28.0049
27.9924
27.9804
27.9689
27.9578
27.9471
27.937
27.9273
27.9181
27.9093
27.9009
27.893
27.8855
27.8784
27.8717
27.8653
27.8593
27.8537
27.8484
27.8434
27.8387
27.8343
27.8302
27.8264
27.8228
27.8194
27.8163
27.8133
27.8106
27.808
27.8057
27.8035
27.8014
27.7995
27.7978
27.7961
27.7946
27.7932
27.7919
27.7907
27.7896
27.7886
27.7877
27.7868
27.786
27.7853
27.7846
27.784
27.7835
27.7829
27.7825
27.782
27.7816
27.7813
27.7809
27.7806
27.7804
27.7801
27.7799
27.7797
27.7795
27.7793
27.7792
27.779
27.7789
27.7788
27.7787
27.7786
27.7785
27.7784
27.7784
27.7783
27.7782
27.7782
27.7781
27.7781
27.7781
27.778
27.778
27.778
27.778
27.7779
27.7779
27.7779
27.7779
27.7779
27.7779
27.7779
27.7778
27.7778
27.7778
27.7778
27.7778
27.7778
27.7778
27.7778
27.7778
27.7778
27.7778
27.7778
27.7778
27.7778
27.7778
27.7778
27.7778
27.7778
27.7778
27.7778
27.7778
27.7778
27.7778
27.7778
27.7778
27.7778
27.7778
27.7778
27.7778
27.7778
27.7778
27.7778
27.7778
27.7778
27.7778
27.7778
27.7778
27.7778
27.7778
27.7778
27.7778
27.7778
27.7778
27.7778
27.7778
27.7778
27.7778
27.7778
27.7778
27.7778
27.7778
27.7778
27.7778
27.7778
27.7778
27.7778
27.7778
27.7778
27.7778
27.7778
27.7778
27.7778
27.7778
27.7778
27.7778
27.7778
27.7778
27.7778
27.7778
27.7778
27.7778
27.7778
27.7778
27.7778
27.7778
27.7778
27.7778
27.7778
27.7778
27.7778
27.7778
27.7778
27.7778
27.7778
27.7778
27.7778
27.7778
27.7778
27.7778
27.7778
27.7778
27.7778
27.7778
27.7778
27.7778
27.7778
27.7778
27.7778
27.7778
27.7778
27.7778
27.7778
27.7778
27.7778
27.7778
27.7778
27.7778
27.7778
27.7778
27.7778
27.7778
27.7778
27.7778
27.7778
27.7778
27.7778
27.7778
27.7778
27.7778
27.7778
27.7778
27.7778
27.7778
27.7778
27.7778
27.7778
27.7778
27.7778
27.7778
27.7778
27.7778
27.7778
27.7778
27.7778
27.7778
27.7778
27.7778
27.7778
27.7778
27.7778
27.7778
27.7778
27.7778
27.7778
27.7778
27.7778
27.7778
27.7778
27.7778
27.7778
27.7778
27.7778
27.7778
27.7778
27.7778
27.7778
27.7778
27.7778
27.7778
27.7778
27.7778
27.7778
27.7778
27.7778
27.7778
27.7778
27.7778
27.7778
27.7778
27.7778
27.7778
27.7778
27.7778
27.7778
27.7778
27.7778
27.7778
27.7778
27.7778
27.7778
27.7778
27.7778
27.7778
27.7778
27.7778
27.7778
27.7778
27.7778
27.7778
27.7778
27.7778
27.7778
27.7778
27.7778
27.7778
27.7778
27.7778
27.7778
27.7778
27.7778
27.7778
27.7778
27.7778
27.7778
27.7778
27.7778
27.7778
27.7778
27.7778
27.7778
27.7778
27.7778
27.7778
27.7778
27.7778
27.7778
27.7778
27.7778
27.7778
27.7778
27.7778
27.7778
27.7778
27.7778
27.7778
27.7778
27.7778
27.7778
27.7778
27.7778
27.7778
27.7778
27.7778
27.7778
27.7778
27.7778
27.7778
27.7778
27.7778
27.7778
27.7778
27.7778
27.7778
27.7778
27.7778
27.7778
27.7778
27.7778
27.7778
27.7778
27.7778
27.7778
27.7778
27.7778
27.7778
27.7778
27.7778
27.7778
27.7778
27.7778
27.7778
27.7778
27.7778
27.7778
27.7778
27.7778
27.7778
27.7778
27.7778
27.7778
27.7778
27.7778
27.7778
27.7778
27.7778
27.7778
27.7778
27.7778
27.7778
27.7778
27.7778
27.7778
27.7778
27.7778
27.7778
27.7778
27.7778
27.7778
27.7778
27.7778
27.7778
27.7778
27.7778
27.7778
27.7778
27.7778
27.7778
27.7778
27.7778
27.7778
27.7778
27.7778
27.7778
27.7778
27.7778
27.7778
27.7778
27.7778
27.7778
27.7778
27.7778
27.7778
27.7778
27.7778
27.7778
27.7778
27.7778
27.7778
27.7778
27.7778
27.7778
27.7778
27.7778
27.7778
27.7778
27.7778
27.7778
27.7778
27.7778
27.7778
27.7778
27.7778
27.7778
27.7778
27.7778
27.7778
27.7778
27.7778
27.7778
27.7778
27.7778
27.7778
27.7778
27.7778
27.7778
27.7778
27.7778
27.7778
27.7778
27.7778
27.7778
27.7778
27.7778
27.7778
27.7778
27.7778
27.7778
27.7778
27.7778
27.7778
27.7778
27.7778
27.7778
27.7778
27.7778
27.7778
27.7778
27.7778
27.7778
27.7778
27.7778
27.7778
27.7778
27.7778
27.7778
27.7778
27.7778
27.7778
27.7778
27.7778
27.7778
27.7778
27.7778
27.7778
27.7778
27.7778
27.7778
27.7778
27.7778
27.7777
27.7777
27.7777
27.7777
27.7777
27.7777
27.7777
27.7776
27.7776
27.7776
27.7775
27.7775
27.7774
27.7773
27.7772
27.7771
27.7769
27.7768
27.7765
27.7763
27.776
27.7756
27.7752
27.7747
27.7741
27.7734
27.7726
27.7717
27.7707
27.7696
27.7684
27.7671
27.7657
27.7643
27.7629
27.7614
27.7598
27.7578
27.7548
27.7498
27.7408
27.7247
27.6971
27.6529
27.5869
27.4966
27.3595
27.19
26.5988
28.1918
26.5311
26.8475
26.9364
27.07
27.1826
27.2786
27.3591
27.4268
27.484
27.5323
27.5733
27.6082
27.6381
27.6638
27.6861
27.7056
27.7227
27.7379
27.7514
27.7635
27.7743
27.7842
27.793
27.8011
27.8084
27.815
27.8209
27.8262
27.831
27.8352
27.8389
27.8421
27.8448
27.8471
27.8489
27.8503
27.8513
27.8519
27.8522
27.8521
27.8517
27.8511
27.8501
27.849
27.8476
27.846
27.8443
27.8424
27.8404
27.8383
27.8362
27.8339
27.8317
27.8294
27.8271
27.8248
27.8225
27.8202
27.818
27.8158
27.8137
27.8117
27.8097
27.8078
27.806
27.8042
27.8025
27.8009
27.7994
27.7979
27.7966
27.7953
27.794
27.7929
27.7918
27.7908
27.7898
27.7889
27.7881
27.7873
27.7866
27.7859
27.7853
27.7847
27.7842
27.7837
27.7832
27.7827
27.7823
27.782
27.7816
27.7813
27.781
27.7807
27.7805
27.7803
27.7801
27.7799
27.7797
27.7795
27.7794
27.7792
27.7791
27.779
27.7789
27.7788
27.7787
27.7786
27.7785
27.7784
27.7784
27.7783
27.7783
27.7782
27.7782
27.7781
27.7781
27.7781
27.778
27.778
27.778
27.778
27.778
27.7779
27.7779
27.7779
27.7779
27.7779
27.7779
27.7779
27.7778
27.7778
27.7778
27.7778
27.7778
27.7778
27.7778
27.7778
27.7778
27.7778
27.7778
27.7778
27.7778
27.7778
27.7778
27.7778
27.7778
27.7778
27.7778
27.7778
27.7778
27.7778
27.7778
27.7778
27.7778
27.7778
27.7778
27.7778
27.7778
27.7778
27.7778
27.7778
27.7778
27.7778
27.7778
27.7778
27.7778
27.7778
27.7778
27.7778
27.7778
27.7778
27.7778
27.7778
27.7778
27.7778
27.7778
27.7778
27.7778
27.7778
27.7778
27.7778
27.7778
27.7778
27.7778
27.7778
27.7778
27.7778
27.7778
27.7778
27.7778
27.7778
27.7778
27.7778
27.7778
27.7778
27.7778
27.7778
27.7778
27.7778
27.7778
27.7778
27.7778
27.7778
27.7778
27.7778
27.7778
27.7778
27.7778
27.7778
27.7778
27.7778
27.7778
27.7778
27.7778
27.7778
27.7778
27.7778
27.7778
27.7778
27.7778
27.7778
27.7778
27.7778
27.7778
27.7778
27.7778
27.7778
27.7778
27.7778
27.7778
27.7778
27.7778
27.7778
27.7778
27.7778
27.7778
27.7778
27.7778
27.7778
27.7778
27.7778
27.7778
27.7778
27.7778
27.7778
27.7778
27.7778
27.7778
27.7778
27.7778
27.7778
27.7778
27.7778
27.7778
27.7778
27.7778
27.7778
27.7778
27.7778
27.7778
27.7778
27.7778
27.7778
27.7778
27.7778
27.7778
27.7778
27.7778
27.7778
27.7778
27.7778
27.7778
27.7778
27.7778
27.7778
27.7778
27.7778
27.7778
27.7778
27.7778
27.7778
27.7778
27.7778
27.7778
27.7778
27.7778
27.7778
27.7778
27.7778
27.7778
27.7778
27.7778
27.7778
27.7778
27.7778
27.7778
27.7778
27.7778
27.7778
27.7778
27.7778
27.7778
27.7778
27.7778
27.7778
27.7778
27.7778
27.7778
27.7778
27.7778
27.7778
27.7778
27.7778
27.7778
27.7778
27.7778
27.7778
27.7778
27.7778
27.7778
27.7778
27.7778
27.7778
27.7778
27.7778
27.7778
27.7778
27.7778
27.7778
27.7778
27.7778
27.7778
27.7778
27.7778
27.7778
27.7778
27.7778
27.7778
27.7778
27.7778
27.7778
27.7778
27.7778
27.7778
27.7778
27.7778
27.7778
27.7778
27.7778
27.7778
27.7778
27.7778
27.7778
27.7778
27.7778
27.7778
27.7778
27.7778
27.7778
27.7778
27.7778
27.7778
27.7778
27.7778
27.7778
27.7778
27.7778
27.7778
27.7778
27.7778
27.7778
27.7778
27.7778
27.7778
27.7778
27.7778
27.7778
27.7778
27.7778
27.7778
27.7778
27.7778
27.7778
27.7778
27.7778
27.7778
27.7778
27.7778
27.7778
27.7778
27.7778
27.7778
27.7778
27.7778
27.7778
27.7778
27.7778
27.7778
27.7778
27.7778
27.7778
27.7778
27.7778
27.7778
27.7778
27.7778
27.7778
27.7778
27.7778
27.7778
27.7778
27.7778
27.7778
27.7778
27.7778
27.7778
27.7778
27.7778
27.7778
27.7778
27.7778
27.7778
27.7778
27.7778
27.7778
27.7778
27.7778
27.7778
27.7778
27.7778
27.7778
27.7778
27.7778
27.7778
27.7778
27.7778
27.7778
27.7778
27.7778
27.7778
27.7778
27.7778
27.7778
27.7778
27.7778
27.7778
27.7778
27.7778
27.7778
27.7778
27.7778
27.7778
27.7778
27.7778
27.7778
27.7778
27.7778
27.7778
27.7778
27.7778
27.7778
27.7778
27.7778
27.7778
27.7778
27.7778
27.7778
27.7778
27.7778
27.7778
27.7778
27.7778
27.7778
27.7778
27.7778
27.7778
27.7778
27.7778
27.7778
27.7778
27.7778
27.7778
27.7778
27.7778
27.7778
27.7778
27.7778
27.7778
27.7778
27.7778
27.7778
27.7778
27.7778
27.7778
27.7778
27.7778
27.7778
27.7778
27.7778
27.7778
27.7778
27.7778
27.7778
27.7778
27.7778
27.7778
27.7778
27.7778
27.7778
27.7778
27.7778
27.7778
27.7778
27.7778
27.7778
27.7778
27.7778
27.7778
27.7778
27.7778
27.7778
27.7778
27.7778
27.7778
27.7778
27.7778
27.7778
27.7778
27.7778
27.7778
27.7778
27.7778
27.7778
27.7778
27.7778
27.7778
27.7778
27.7778
27.7778
27.7778
27.7778
27.7778
27.7778
27.7778
27.7778
27.7777
27.7777
27.7777
27.7777
27.7777
27.7777
27.7777
27.7776
27.7776
27.7776
27.7775
27.7775
27.7774
27.7773
27.7772
27.7771
27.7769
27.7767
27.7765
27.7762
27.7759
27.7755
27.775
27.7744
27.7737
27.7729
27.772
27.7709
27.7696
27.7681
27.7665
27.7648
27.763
27.7612
27.7597
27.7586
27.7583
27.7595
27.763
27.7698
27.7816
27.8001
27.8278
27.8671
27.9201
27.9874
28.0666
28.1489
28.2145
28.2271
28.1559
27.9972
28.1725
24.9669
24.2051
24.7298
24.9682
25.2211
25.4374
25.6281
25.7957
25.9435
26.0741
26.1898
26.2925
26.3838
26.4653
26.5383
26.6038
26.6628
26.7161
26.7644
26.8083
26.8483
26.8849
26.9183
26.949
26.9771
27.003
27.0269
27.0489
27.0693
27.0881
27.1056
27.1219
27.1371
27.1514
27.1648
27.1775
27.1896
27.2012
27.2124
27.2232
27.2339
27.2443
27.2547
27.2651
27.2754
27.2859
27.2964
27.3071
27.318
27.329
27.3402
27.3516
27.3631
27.3748
27.3867
27.3987
27.4108
27.423
27.4352
27.4474
27.4596
27.4718
27.4839
27.496
27.5078
27.5195
27.5311
27.5424
27.5535
27.5643
27.5749
27.5852
27.5951
27.6048
27.6141
27.6231
27.6318
27.6401
27.6481
27.6558
27.6631
27.6701
27.6768
27.6832
27.6892
27.6949
27.7004
27.7055
27.7103
27.7149
27.7193
27.7233
27.7272
27.7308
27.7341
27.7373
27.7403
27.7431
27.7457
27.7481
27.7503
27.7525
27.7544
27.7563
27.758
27.7595
27.761
27.7624
27.7636
27.7648
27.7659
27.7669
27.7678
27.7686
27.7694
27.7701
27.7708
27.7714
27.772
27.7725
27.773
27.7734
27.7738
27.7742
27.7745
27.7748
27.7751
27.7753
27.7756
27.7758
27.776
27.7762
27.7763
27.7765
27.7766
27.7767
27.7768
27.7769
27.777
27.7771
27.7772
27.7772
27.7773
27.7773
27.7774
27.7774
27.7775
27.7775
27.7775
27.7776
27.7776
27.7776
27.7776
27.7776
27.7777
27.7777
27.7777
27.7777
27.7777
27.7777
27.7777
27.7777
27.7777
27.7777
27.7777
27.7777
27.7778
27.7778
27.7778
27.7778
27.7778
27.7778
27.7778
27.7778
27.7778
27.7778
27.7778
27.7778
27.7778
27.7778
27.7778
27.7778
27.7778
27.7778
27.7778
27.7778
27.7778
27.7778
27.7778
27.7778
27.7778
27.7778
27.7778
27.7778
27.7778
27.7778
27.7778
27.7778
27.7778
27.7778
27.7778
27.7778
27.7778
27.7778
27.7778
27.7778
27.7778
27.7778
27.7778
27.7778
27.7778
27.7778
27.7778
27.7778
27.7778
27.7778
27.7778
27.7778
27.7778
27.7778
27.7778
27.7778
27.7778
27.7778
27.7778
27.7778
27.7778
27.7778
27.7778
27.7778
27.7778
27.7778
27.7778
27.7778
27.7778
27.7778
27.7778
27.7778
27.7778
27.7778
27.7778
27.7778
27.7778
27.7778
27.7778
27.7778
27.7778
27.7778
27.7778
27.7778
27.7778
27.7778
27.7778
27.7778
27.7778
27.7778
27.7778
27.7778
27.7778
27.7778
27.7778
27.7778
27.7778
27.7778
27.7778
27.7778
27.7778
27.7778
27.7778
27.7778
27.7778
27.7778
27.7778
27.7778
27.7778
27.7778
27.7778
27.7778
27.7778
27.7778
27.7778
27.7778
27.7778
27.7778
27.7778
27.7778
27.7778
27.7778
27.7778
27.7778
27.7778
27.7778
27.7778
27.7778
27.7778
27.7778
27.7778
27.7778
27.7778
27.7778
27.7778
27.7778
27.7778
27.7778
27.7778
27.7778
27.7778
27.7778
27.7778
27.7778
27.7778
27.7778
27.7778
27.7778
27.7778
27.7778
27.7778
27.7778
27.7778
27.7778
27.7778
27.7778
27.7778
27.7778
27.7778
27.7778
27.7778
27.7778
27.7778
27.7778
27.7778
27.7778
27.7778
27.7778
27.7778
27.7778
27.7778
27.7778
27.7778
27.7778
27.7778
27.7778
27.7778
27.7778
27.7778
27.7778
27.7778
27.7778
27.7778
27.7778
27.7778
27.7778
27.7778
27.7778
27.7778
27.7778
27.7778
27.7778
27.7778
27.7778
27.7778
27.7778
27.7778
27.7778
27.7778
27.7778
27.7778
27.7778
27.7778
27.7778
27.7778
27.7778
27.7778
27.7778
27.7778
27.7778
27.7778
27.7778
27.7778
27.7778
27.7778
27.7778
27.7778
27.7778
27.7778
27.7778
27.7778
27.7778
27.7778
27.7778
27.7778
27.7778
27.7778
27.7778
27.7778
27.7778
27.7778
27.7778
27.7778
27.7778
27.7778
27.7778
27.7778
27.7778
27.7778
27.7778
27.7778
27.7778
27.7778
27.7778
27.7778
27.7778
27.7778
27.7778
27.7778
27.7778
27.7778
27.7778
27.7778
27.7778
27.7778
27.7778
27.7778
27.7778
27.7778
27.7778
27.7778
27.7778
27.7778
27.7778
27.7778
27.7778
27.7778
27.7778
27.7778
27.7778
27.7778
27.7778
27.7778
27.7778
27.7778
27.7778
27.7778
27.7778
27.7778
27.7778
27.7778
27.7778
27.7778
27.7778
27.7778
27.7778
27.7778
27.7778
27.7778
27.7778
27.7778
27.7778
27.7778
27.7778
27.7778
27.7778
27.7778
27.7778
27.7778
27.7778
27.7778
27.7778
27.7778
27.7778
27.7778
27.7778
27.7778
27.7778
27.7778
27.7778
27.7778
27.7778
27.7778
27.7778
27.7778
27.7778
27.7778
27.7778
27.7778
27.7778
27.7778
27.7778
27.7778
27.7778
27.7778
27.7778
27.7778
27.7778
27.7778
27.7778
27.7778
27.7778
27.7778
27.7778
27.7778
27.7778
27.7778
27.7778
27.7778
27.7778
27.7778
27.7778
27.7778
27.7778
27.7778
27.7778
27.7778
27.7778
27.7778
27.7778
27.7778
27.7778
27.7778
27.7778
27.7778
27.7778
27.7778
27.7778
27.7778
27.7778
27.7778
27.7778
27.7778
27.7778
27.7778
27.7778
27.7778
27.7778
27.7778
27.7778
27.7778
27.7778
27.7778
27.7778
27.7778
27.7778
27.7778
27.7778
27.7778
27.7777
27.7777
27.7777
27.7777
27.7777
27.7777
27.7777
27.7776
27.7776
27.7776
27.7775
27.7775
27.7774
27.7773
27.7772
27.7771
27.7769
27.7768
27.7765
27.7762
27.7759
27.7755
27.775
27.7744
27.7737
27.7728
27.7718
27.7706
27.7692
27.7676
27.7658
27.7638
27.7616
27.7593
27.757
27.755
27.7537
27.7535
27.7554
27.7605
27.7707
27.7885
27.8173
27.8616
27.9274
28.0218
28.1522
28.3248
28.5401
28.7865
29.0365
29.26
29.4797
29.8342
30.6535
23.4765
23.1238
23.575
23.8018
24.0468
24.2675
24.4715
24.6578
24.8277
24.9827
25.1241
25.2531
25.371
25.4786
25.5771
25.6672
25.7499
25.8257
25.8955
25.9597
26.019
26.0736
26.1242
26.171
26.2144
26.2547
26.2923
26.3273
26.3601
26.3909
26.4199
26.4473
26.4734
26.4983
26.5222
26.5454
26.568
26.5901
26.612
26.6336
26.6552
26.6769
26.6987
26.7208
26.7432
26.7659
26.789
26.8124
26.8363
26.8606
26.8853
26.9104
26.9358
26.9614
26.9873
27.0133
27.0395
27.0657
27.0919
27.118
27.144
27.1697
27.1952
27.2203
27.245
27.2693
27.2931
27.3164
27.3391
27.3612
27.3826
27.4034
27.4235
27.4429
27.4616
27.4796
27.4968
27.5133
27.5291
27.5443
27.5587
27.5724
27.5854
27.5978
27.6095
27.6206
27.6312
27.6411
27.6505
27.6593
27.6676
27.6754
27.6827
27.6896
27.696
27.7021
27.7077
27.713
27.7179
27.7225
27.7268
27.7308
27.7345
27.7379
27.7411
27.7441
27.7468
27.7493
27.7517
27.7539
27.7559
27.7577
27.7595
27.761
27.7625
27.7638
27.7651
27.7662
27.7672
27.7682
27.769
27.7698
27.7706
27.7712
27.7719
27.7724
27.7729
27.7734
27.7738
27.7742
27.7745
27.7749
27.7752
27.7754
27.7757
27.7759
27.7761
27.7762
27.7764
27.7765
27.7767
27.7768
27.7769
27.777
27.7771
27.7772
27.7772
27.7773
27.7773
27.7774
27.7774
27.7775
27.7775
27.7775
27.7776
27.7776
27.7776
27.7776
27.7776
27.7777
27.7777
27.7777
27.7777
27.7777
27.7777
27.7777
27.7777
27.7777
27.7777
27.7777
27.7778
27.7778
27.7778
27.7778
27.7778
27.7778
27.7778
27.7778
27.7778
27.7778
27.7778
27.7778
27.7778
27.7778
27.7778
27.7778
27.7778
27.7778
27.7778
27.7778
27.7778
27.7778
27.7778
27.7778
27.7778
27.7778
27.7778
27.7778
27.7778
27.7778
27.7778
27.7778
27.7778
27.7778
27.7778
27.7778
27.7778
27.7778
27.7778
27.7778
27.7778
27.7778
27.7778
27.7778
27.7778
27.7778
27.7778
27.7778
27.7778
27.7778
27.7778
27.7778
27.7778
27.7778
27.7778
27.7778
27.7778
27.7778
27.7778
27.7778
27.7778
27.7778
27.7778
27.7778
27.7778
27.7778
27.7778
27.7778
27.7778
27.7778
27.7778
27.7778
27.7778
27.7778
27.7778
27.7778
27.7778
27.7778
27.7778
27.7778
27.7778
27.7778
27.7778
27.7778
27.7778
27.7778
27.7778
27.7778
27.7778
27.7778
27.7778
27.7778
27.7778
27.7778
27.7778
27.7778
27.7778
27.7778
27.7778
27.7778
27.7778
27.7778
27.7778
27.7778
27.7778
27.7778
27.7778
27.7778
27.7778
27.7778
27.7778
27.7778
27.7778
27.7778
27.7778
27.7778
27.7778
27.7778
27.7778
27.7778
27.7778
27.7778
27.7778
27.7778
27.7778
27.7778
27.7778
27.7778
27.7778
27.7778
27.7778
27.7778
27.7778
27.7778
27.7778
27.7778
27.7778
27.7778
27.7778
27.7778
27.7778
27.7778
27.7778
27.7778
27.7778
27.7778
27.7778
27.7778
27.7778
27.7778
27.7778
27.7778
27.7778
27.7778
27.7778
27.7778
27.7778
27.7778
27.7778
27.7778
27.7778
27.7778
27.7778
27.7778
27.7778
27.7778
27.7778
27.7778
27.7778
27.7778
27.7778
27.7778
27.7778
27.7778
27.7778
27.7778
27.7778
27.7778
27.7778
27.7778
27.7778
27.7778
27.7778
27.7778
27.7778
27.7778
27.7778
27.7778
27.7778
27.7778
27.7778
27.7778
27.7778
27.7778
27.7778
27.7778
27.7778
27.7778
27.7778
27.7778
27.7778
27.7778
27.7778
27.7778
27.7778
27.7778
27.7778
27.7778
27.7778
27.7778
27.7778
27.7778
27.7778
27.7778
27.7778
27.7778
27.7778
27.7778
27.7778
27.7778
27.7778
27.7778
27.7778
27.7778
27.7778
27.7778
27.7778
27.7778
27.7778
27.7778
27.7778
27.7778
27.7778
27.7778
27.7778
27.7778
27.7778
27.7778
27.7778
27.7778
27.7778
27.7778
27.7778
27.7778
27.7778
27.7778
27.7778
27.7778
27.7778
27.7778
27.7778
27.7778
27.7778
27.7778
27.7778
27.7778
27.7778
27.7778
27.7778
27.7778
27.7778
27.7778
27.7778
27.7778
27.7778
27.7778
27.7778
27.7778
27.7778
27.7778
27.7778
27.7778
27.7778
27.7778
27.7778
27.7778
27.7778
27.7778
27.7778
27.7778
27.7778
27.7778
27.7778
27.7778
27.7778
27.7778
27.7778
27.7778
27.7778
27.7778
27.7778
27.7778
27.7778
27.7778
27.7778
27.7778
27.7778
27.7778
27.7778
27.7778
27.7778
27.7778
27.7778
27.7778
27.7778
27.7778
27.7778
27.7778
27.7778
27.7778
27.7778
27.7778
27.7778
27.7778
27.7778
27.7778
27.7778
27.7778
27.7778
27.7778
27.7778
27.7778
27.7778
27.7778
27.7778
27.7778
27.7778
27.7778
27.7778
27.7778
27.7778
27.7778
27.7778
27.7778
27.7778
27.7778
27.7778
27.7778
27.7778
27.7778
27.7778
27.7778
27.7778
27.7778
27.7778
27.7778
27.7778
27.7778
27.7778
27.7778
27.7778
27.7778
27.7778
27.7778
27.7778
27.7778
27.7778
27.7778
27.7778
27.7778
27.7778
27.7778
27.7778
27.7778
27.7778
27.7778
27.7778
27.7778
27.7778
27.7778
27.7778
27.7778
27.7778
27.7778
27.7777
27.7777
27.7777
27.7777
27.7777
27.7777
27.7777
27.7776
27.7776
27.7776
27.7775
27.7775
27.7774
27.7773
27.7772
27.7771
27.7769
27.7767
27.7765
27.7762
27.7758
27.7754
27.7748
27.7742
27.7734
27.7725
27.7714
27.7701
27.7686
27.7668
27.7648
27.7625
27.76
27.7572
27.7544
27.7518
27.7497
27.7486
27.7494
27.7534
27.7624
27.7793
27.8077
27.8533
27.9232
28.0271
28.177
28.3861
28.6664
29.0239
29.4543
29.9471
30.5066
31.1687
31.9702
32.7334
22.7471
22.5408
22.8856
23.0646
23.2621
23.4487
23.6298
23.8024
23.9655
24.119
24.2629
24.3977
24.5237
24.6414
24.751
24.8533
24.9485
25.0372
25.1198
25.1968
25.2685
25.3355
25.398
25.4565
25.5112
25.5626
25.6108
25.6563
25.6993
25.7401
25.7791
25.8163
25.8522
25.8869
25.9208
25.9539
25.9866
26.019
26.0514
26.0837
26.1163
26.1492
26.1826
26.2164
26.2508
26.2858
26.3214
26.3577
26.3946
26.4321
26.47
26.5085
26.5474
26.5866
26.6261
26.6657
26.7053
26.745
26.7844
26.8237
26.8626
26.901
26.939
26.9763
27.013
27.0489
27.084
27.1182
27.1515
27.1838
27.2151
27.2454
27.2746
27.3027
27.3298
27.3557
27.3806
27.4044
27.4271
27.4488
27.4694
27.489
27.5076
27.5253
27.542
27.5578
27.5727
27.5868
27.6
27.6125
27.6242
27.6352
27.6456
27.6552
27.6643
27.6727
27.6807
27.688
27.6949
27.7013
27.7073
27.7129
27.718
27.7228
27.7273
27.7314
27.7352
27.7387
27.742
27.745
27.7478
27.7503
27.7527
27.7549
27.7569
27.7587
27.7604
27.762
27.7634
27.7647
27.7659
27.767
27.768
27.7689
27.7697
27.7705
27.7712
27.7718
27.7724
27.7729
27.7734
27.7738
27.7742
27.7746
27.7749
27.7752
27.7755
27.7757
27.7759
27.7761
27.7763
27.7765
27.7766
27.7767
27.7768
27.7769
27.777
27.7771
27.7772
27.7773
27.7773
27.7774
27.7774
27.7775
27.7775
27.7775
27.7776
27.7776
27.7776
27.7776
27.7776
27.7777
27.7777
27.7777
27.7777
27.7777
27.7777
27.7777
27.7777
27.7777
27.7777
27.7777
27.7778
27.7778
27.7778
27.7778
27.7778
27.7778
27.7778
27.7778
27.7778
27.7778
27.7778
27.7778
27.7778
27.7778
27.7778
27.7778
27.7778
27.7778
27.7778
27.7778
27.7778
27.7778
27.7778
27.7778
27.7778
27.7778
27.7778
27.7778
27.7778
27.7778
27.7778
27.7778
27.7778
27.7778
27.7778
27.7778
27.7778
27.7778
27.7778
27.7778
27.7778
27.7778
27.7778
27.7778
27.7778
27.7778
27.7778
27.7778
27.7778
27.7778
27.7778
27.7778
27.7778
27.7778
27.7778
27.7778
27.7778
27.7778
27.7778
27.7778
27.7778
27.7778
27.7778
27.7778
27.7778
27.7778
27.7778
27.7778
27.7778
27.7778
27.7778
27.7778
27.7778
27.7778
27.7778
27.7778
27.7778
27.7778
27.7778
27.7778
27.7778
27.7778
27.7778
27.7778
27.7778
27.7778
27.7778
27.7778
27.7778
27.7778
27.7778
27.7778
27.7778
27.7778
27.7778
27.7778
27.7778
27.7778
27.7778
27.7778
27.7778
27.7778
27.7778
27.7778
27.7778
27.7778
27.7778
27.7778
27.7778
27.7778
27.7778
27.7778
27.7778
27.7778
27.7778
27.7778
27.7778
27.7778
27.7778
27.7778
27.7778
27.7778
27.7778
27.7778
27.7778
27.7778
27.7778
27.7778
27.7778
27.7778
27.7778
27.7778
27.7778
27.7778
27.7778
27.7778
27.7778
27.7778
27.7778
27.7778
27.7778
27.7778
27.7778
27.7778
27.7778
27.7778
27.7778
27.7778
27.7778
27.7778
27.7778
27.7778
27.7778
27.7778
27.7778
27.7778
27.7778
27.7778
27.7778
27.7778
27.7778
27.7778
27.7778
27.7778
27.7778
27.7778
27.7778
27.7778
27.7778
27.7778
27.7778
27.7778
27.7778
27.7778
27.7778
27.7778
27.7778
27.7778
27.7778
27.7778
27.7778
27.7778
27.7778
27.7778
27.7778
27.7778
27.7778
27.7778
27.7778
27.7778
27.7778
27.7778
27.7778
27.7778
27.7778
27.7778
27.7778
27.7778
27.7778
27.7778
27.7778
27.7778
27.7778
27.7778
27.7778
27.7778
27.7778
27.7778
27.7778
27.7778
27.7778
27.7778
27.7778
27.7778
27.7778
27.7778
27.7778
27.7778
27.7778
27.7778
27.7778
27.7778
27.7778
27.7778
27.7778
27.7778
27.7778
27.7778
27.7778
27.7778
27.7778
27.7778
27.7778
27.7778
27.7778
27.7778
27.7778
27.7778
27.7778
27.7778
27.7778
27.7778
27.7778
27.7778
27.7778
27.7778
27.7778
27.7778
27.7778
27.7778
27.7778
27.7778
27.7778
27.7778
27.7778
27.7778
27.7778
27.7778
27.7778
27.7778
27.7778
27.7778
27.7778
27.7778
27.7778
27.7778
27.7778
27.7778
27.7778
27.7778
27.7778
27.7778
27.7778
27.7778
27.7778
27.7778
27.7778
27.7778
27.7778
27.7778
27.7778
27.7778
27.7778
27.7778
27.7778
27.7778
27.7778
27.7778
27.7778
27.7778
27.7778
27.7778
27.7778
27.7778
27.7778
27.7778
27.7778
27.7778
27.7778
27.7778
27.7778
27.7778
27.7778
27.7778
27.7778
27.7778
27.7778
27.7778
27.7778
27.7778
27.7778
27.7778
27.7778
27.7778
27.7778
27.7778
27.7778
27.7778
27.7778
27.7778
27.7778
27.7778
27.7778
27.7778
27.7778
27.7778
27.7778
27.7778
27.7778
27.7778
27.7778
27.7778
27.7778
27.7778
27.7778
27.7778
27.7778
27.7778
27.7778
27.7778
27.7778
27.7778
27.7778
27.7778
27.7778
27.7778
27.7778
27.7778
27.7778
27.7778
27.7778
27.7778
27.7778
27.7778
27.7778
27.7778
27.7778
27.7778
27.7778
27.7778
27.7778
27.7778
27.7778
27.7778
27.7778
27.7778
27.7778
27.7778
27.7778
27.7778
27.7778
27.7777
27.7777
27.7777
27.7777
27.7777
27.7777
27.7777
27.7776
27.7776
27.7776
27.7775
27.7775
27.7774
27.7773
27.7772
27.7771
27.7769
27.7767
27.7765
27.7762
27.7759
27.7754
27.7749
27.7743
27.7735
27.7726
27.7715
27.7702
27.7686
27.7668
27.7647
27.7622
27.7594
27.7563
27.753
27.7497
27.7465
27.7439
27.7426
27.7436
27.7486
27.76
27.781
27.8167
27.874
27.9624
28.0944
28.2855
28.5532
28.9153
29.3874
29.9834
30.7176
31.5964
32.5391
33.2899
33.0407
22.3198
22.1686
22.4388
22.5753
22.7234
22.8667
23.0119
23.1563
23.2981
23.436
23.569
23.6968
23.8191
23.9356
24.0464
24.1514
24.2507
24.3446
24.4332
24.5167
24.5955
24.6698
24.7399
24.8061
24.8687
24.928
24.9843
25.0378
25.089
25.1381
25.1855
25.2313
25.2758
25.3194
25.3624
25.4049
25.4471
25.4894
25.5318
25.5746
25.6178
25.6617
25.7063
25.7517
25.7978
25.8449
25.8928
25.9415
25.991
26.0412
26.092
26.1434
26.1953
26.2475
26.2999
26.3524
26.4048
26.4571
26.509
26.5606
26.6115
26.6618
26.7113
26.76
26.8076
26.8542
26.8996
26.9438
26.9867
27.0283
27.0685
27.1073
27.1447
27.1807
27.2153
27.2484
27.28
27.3103
27.3391
27.3666
27.3927
27.4175
27.441
27.4632
27.4843
27.5042
27.5229
27.5406
27.5572
27.5728
27.5875
27.6013
27.6142
27.6263
27.6376
27.6481
27.658
27.6672
27.6757
27.6837
27.6911
27.698
27.7044
27.7103
27.7158
27.7209
27.7256
27.7299
27.734
27.7377
27.7411
27.7443
27.7472
27.7498
27.7523
27.7546
27.7566
27.7585
27.7603
27.7619
27.7634
27.7647
27.7659
27.767
27.7681
27.769
27.7698
27.7706
27.7713
27.7719
27.7725
27.773
27.7735
27.7739
27.7743
27.7747
27.775
27.7753
27.7756
27.7758
27.776
27.7762
27.7764
27.7765
27.7767
27.7768
27.7769
27.777
27.7771
27.7772
27.7772
27.7773
27.7773
27.7774
27.7774
27.7775
27.7775
27.7775
27.7776
27.7776
27.7776
27.7776
27.7777
27.7777
27.7777
27.7777
27.7777
27.7777
27.7777
27.7777
27.7777
27.7777
27.7777
27.7778
27.7778
27.7778
27.7778
27.7778
27.7778
27.7778
27.7778
27.7778
27.7778
27.7778
27.7778
27.7778
27.7778
27.7778
27.7778
27.7778
27.7778
27.7778
27.7778
27.7778
27.7778
27.7778
27.7778
27.7778
27.7778
27.7778
27.7778
27.7778
27.7778
27.7778
27.7778
27.7778
27.7778
27.7778
27.7778
27.7778
27.7778
27.7778
27.7778
27.7778
27.7778
27.7778
27.7778
27.7778
27.7778
27.7778
27.7778
27.7778
27.7778
27.7778
27.7778
27.7778
27.7778
27.7778
27.7778
27.7778
27.7778
27.7778
27.7778
27.7778
27.7778
27.7778
27.7778
27.7778
27.7778
27.7778
27.7778
27.7778
27.7778
27.7778
27.7778
27.7778
27.7778
27.7778
27.7778
27.7778
27.7778
27.7778
27.7778
27.7778
27.7778
27.7778
27.7778
27.7778
27.7778
27.7778
27.7778
27.7778
27.7778
27.7778
27.7778
27.7778
27.7778
27.7778
27.7778
27.7778
27.7778
27.7778
27.7778
27.7778
27.7778
27.7778
27.7778
27.7778
27.7778
27.7778
27.7778
27.7778
27.7778
27.7778
27.7778
27.7778
27.7778
27.7778
27.7778
27.7778
27.7778
27.7778
27.7778
27.7778
27.7778
27.7778
27.7778
27.7778
27.7778
27.7778
27.7778
27.7778
27.7778
27.7778
27.7778
27.7778
27.7778
27.7778
27.7778
27.7778
27.7778
27.7778
27.7778
27.7778
27.7778
27.7778
27.7778
27.7778
27.7778
27.7778
27.7778
27.7778
27.7778
27.7778
27.7778
27.7778
27.7778
27.7778
27.7778
27.7778
27.7778
27.7778
27.7778
27.7778
27.7778
27.7778
27.7778
27.7778
27.7778
27.7778
27.7778
27.7778
27.7778
27.7778
27.7778
27.7778
27.7778
27.7778
27.7778
27.7778
27.7778
27.7778
27.7778
27.7778
27.7778
27.7778
27.7778
27.7778
27.7778
27.7778
27.7778
27.7778
27.7778
27.7778
27.7778
27.7778
27.7778
27.7778
27.7778
27.7778
27.7778
27.7778
27.7778
27.7778
27.7778
27.7778
27.7778
27.7778
27.7778
27.7778
27.7778
27.7778
27.7778
27.7778
27.7778
27.7778
27.7778
27.7778
27.7778
27.7778
27.7778
27.7778
27.7778
27.7778
27.7778
27.7778
27.7778
27.7778
27.7778
27.7778
27.7778
27.7778
27.7778
27.7778
27.7778
27.7778
27.7778
27.7778
27.7778
27.7778
27.7778
27.7778
27.7778
27.7778
27.7778
27.7778
27.7778
27.7778
27.7778
27.7778
27.7778
27.7778
27.7778
27.7778
27.7778
27.7778
27.7778
27.7778
27.7778
27.7778
27.7778
27.7778
27.7778
27.7778
27.7778
27.7778
27.7778
27.7778
27.7778
27.7778
27.7778
27.7778
27.7778
27.7778
27.7778
27.7778
27.7778
27.7778
27.7778
27.7778
27.7778
27.7778
27.7778
27.7778
27.7778
27.7778
27.7778
27.7778
27.7778
27.7778
27.7778
27.7778
27.7778
27.7778
27.7778
27.7778
27.7778
27.7778
27.7778
27.7778
27.7778
27.7778
27.7778
27.7778
27.7778
27.7778
27.7778
27.7778
27.7778
27.7778
27.7778
27.7778
27.7778
27.7778
27.7778
27.7778
27.7778
27.7778
27.7778
27.7778
27.7778
27.7778
27.7778
27.7778
27.7778
27.7778
27.7778
27.7778
27.7778
27.7778
27.7778
27.7778
27.7778
27.7778
27.7778
27.7778
27.7778
27.7778
27.7778
27.7778
27.7778
27.7778
27.7778
27.7778
27.7778
27.7778
27.7778
27.7778
27.7778
27.7778
27.7778
27.7778
27.7778
27.7778
27.7778
27.7778
27.7778
27.7778
27.7778
27.7778
27.7778
27.7778
27.7778
27.7778
27.7778
27.7778
27.7778
27.7778
27.7778
27.7778
27.7778
27.7778
27.7778
27.7777
27.7777
27.7777
27.7777
27.7777
27.7777
27.7777
27.7776
27.7776
27.7776
27.7775
27.7774
27.7774
27.7773
27.7771
27.777
27.7768
27.7766
27.7763
27.776
27.7756
27.7751
27.7745
27.7738
27.7729
27.7718
27.7706
27.769
27.7672
27.7651
27.7625
27.7596
27.7563
27.7526
27.7485
27.7443
27.7401
27.7364
27.734
27.7339
27.7378
27.7483
27.7691
27.8055
27.8652
27.9584
28.0985
28.3023
28.5893
28.9819
29.5055
30.1875
31.0396
32.0029
32.7855
32.8327
30.7844
22.0173
21.9032
22.1275
22.2349
22.3445
22.4489
22.5573
22.6693
22.7838
22.8992
23.0141
23.1274
23.2385
23.3466
23.4513
23.5524
23.6496
23.7428
23.8319
23.9171
23.9983
24.0758
24.1498
24.2203
24.2877
24.3522
24.4141
24.4736
24.531
24.5867
24.6409
24.6939
24.746
24.7974
24.8485
24.8995
24.9506
25.002
25.054
25.1066
25.16
25.2144
25.2697
25.3261
25.3836
25.4422
25.5018
25.5624
25.6239
25.6862
25.7493
25.813
25.8771
25.9415
26.0061
26.0706
26.135
26.1991
26.2627
26.3256
26.3877
26.449
26.5091
26.5681
26.6258
26.6821
26.7369
26.7902
26.8418
26.8918
26.9401
26.9866
27.0314
27.0744
27.1156
27.155
27.1927
27.2287
27.263
27.2955
27.3265
27.3559
27.3837
27.41