/*--------------------------------*- C++ -*----------------------------------*\
  =========                 |
  \\      /  F ield         | OpenFOAM: The Open Source CFD Toolbox
   \\    /   O peration     | Website:  https://openfoam.org
    \\  /    A nd           | Version:  9
     \\/     M anipulation  |
\*---------------------------------------------------------------------------*/
FoamFile
{
    format      ascii;
    class       volScalarField;
    location    "0.5";
    object      f_7;
}
// * * * * * * * * * * * * * * * * * * * * * * * * * * * * * * * * * * * * * //

dimensions      [1 -3 0 0 0 0 0];

internalField   nonuniform List<scalar> 
120000
(
18.4567
19.5624
20.6079
21.5015
22.313
23.0264
23.6435
24.1711
24.6198
25.0007
25.3241
25.5991
25.8335
26.034
26.2062
26.3549
26.484
26.5967
26.6956
26.783
26.8605
26.9297
26.9917
27.0475
27.0979
27.1435
27.1848
27.2224
27.2565
27.2875
27.3157
27.3413
27.3644
27.3854
27.4044
27.4215
27.4369
27.4508
27.4633
27.4745
27.4846
27.4937
27.5019
27.5094
27.5162
27.5225
27.5283
27.5338
27.539
27.544
27.5488
27.5536
27.5583
27.563
27.5678
27.5726
27.5774
27.5824
27.5875
27.5926
27.5978
27.6031
27.6085
27.614
27.6195
27.625
27.6306
27.6361
27.6417
27.6472
27.6527
27.6581
27.6635
27.6687
27.6739
27.6789
27.6839
27.6886
27.6933
27.6978
27.7022
27.7064
27.7105
27.7144
27.7181
27.7217
27.7251
27.7284
27.7315
27.7344
27.7372
27.7399
27.7424
27.7448
27.7471
27.7492
27.7512
27.7531
27.7549
27.7565
27.7581
27.7595
27.7609
27.7622
27.7634
27.7645
27.7655
27.7665
27.7674
27.7682
27.769
27.7697
27.7703
27.771
27.7715
27.7721
27.7725
27.773
27.7734
27.7738
27.7741
27.7744
27.7747
27.775
27.7753
27.7755
27.7757
27.7759
27.7761
27.7762
27.7764
27.7765
27.7766
27.7767
27.7768
27.7769
27.777
27.7771
27.7772
27.7772
27.7773
27.7773
27.7774
27.7774
27.7775
27.7775
27.7775
27.7775
27.7776
27.7776
27.7776
27.7776
27.7776
27.7777
27.7777
27.7777
27.7777
27.7777
27.7777
27.7777
27.7777
27.7777
27.7777
27.7777
27.7777
27.7778
27.7778
27.7778
27.7778
27.7778
27.7778
27.7778
27.7778
27.7778
27.7778
27.7778
27.7778
27.7778
27.7778
27.7778
27.7778
27.7778
27.7778
27.7778
27.7778
27.7778
27.7778
27.7778
27.7778
27.7778
27.7778
27.7778
27.7778
27.7778
27.7778
27.7778
27.7778
27.7778
27.7778
27.7778
27.7778
27.7778
27.7778
27.7778
27.7778
27.7778
27.7778
27.7778
27.7778
27.7778
27.7778
27.7778
27.7778
27.7778
27.7778
27.7778
27.7778
27.7778
27.7778
27.7778
27.7778
27.7778
27.7778
27.7778
27.7778
27.7778
27.7778
27.7778
27.7778
27.7778
27.7778
27.7778
27.7778
27.7778
27.7778
27.7778
27.7778
27.7778
27.7778
27.7778
27.7778
27.7778
27.7778
27.7778
27.7778
27.7778
27.7778
27.7778
27.7778
27.7778
27.7778
27.7778
27.7778
27.7778
27.7778
27.7778
27.7778
27.7778
27.7778
27.7778
27.7778
27.7778
27.7778
27.7778
27.7778
27.7778
27.7778
27.7778
27.7778
27.7778
27.7778
27.7778
27.7778
27.7778
27.7778
27.7778
27.7778
27.7778
27.7778
27.7778
27.7778
27.7778
27.7778
27.7778
27.7778
27.7778
27.7778
27.7778
27.7778
27.7778
27.7778
27.7778
27.7778
27.7778
27.7778
27.7778
27.7778
27.7778
27.7778
27.7778
27.7778
27.7778
27.7778
27.7778
27.7778
27.7778
27.7778
27.7778
27.7778
27.7778
27.7778
27.7778
27.7778
27.7778
27.7778
27.7778
27.7778
27.7778
27.7778
27.7778
27.7778
27.7778
27.7778
27.7778
27.7778
27.7778
27.7778
27.7778
27.7778
27.7778
27.7778
27.7778
27.7778
27.7778
27.7778
27.7778
27.7778
27.7778
27.7778
27.7778
27.7778
27.7778
27.7778
27.7778
27.7778
27.7778
27.7778
27.7778
27.7778
27.7778
27.7778
27.7778
27.7778
27.7778
27.7778
27.7778
27.7778
27.7778
27.7778
27.7778
27.7778
27.7778
27.7778
27.7778
27.7778
27.7778
27.7778
27.7778
27.7778
27.7778
27.7778
27.7778
27.7778
27.7778
27.7778
27.7778
27.7778
27.7778
27.7778
27.7778
27.7778
27.7778
27.7778
27.7778
27.7778
27.7778
27.7778
27.7778
27.7778
27.7778
27.7778
27.7778
27.7778
27.7778
27.7778
27.7778
27.7778
27.7778
27.7778
27.7778
27.7778
27.7778
27.7778
27.7778
27.7778
27.7778
27.7778
27.7778
27.7778
27.7778
27.7778
27.7778
27.7778
27.7778
27.7778
27.7778
27.7778
27.7778
27.7778
27.7778
27.7778
27.7778
27.7778
27.7778
27.7778
27.7778
27.7778
27.7778
27.7778
27.7778
27.7778
27.7778
27.7778
27.7778
27.7778
27.7778
27.7778
27.7778
27.7778
27.7778
27.7778
27.7778
27.7778
27.7778
27.7778
27.7778
27.7778
27.7778
27.7778
27.7778
27.7778
27.7778
27.7778
27.7778
27.7778
27.7778
27.7778
27.7778
27.7778
27.7778
27.7778
27.7778
27.7778
27.7778
27.7778
27.7778
27.7778
27.7778
27.7778
27.7778
27.7778
27.7778
27.7778
27.7778
27.7778
27.7778
27.7778
27.7778
27.7778
27.7778
27.7778
27.7778
27.7778
27.7778
27.7778
27.7778
27.7778
27.7778
27.7778
27.7778
27.7778
27.7778
27.7778
27.7778
27.7778
27.7778
27.7778
27.7778
27.7778
27.7778
27.7778
27.7778
27.7778
27.7778
27.7778
27.7778
27.7778
27.7778
27.7778
27.7778
27.7778
27.7778
27.7778
27.7778
27.7778
27.7778
27.7778
27.7778
27.7778
27.7778
27.7778
27.7778
27.7778
27.7778
27.7778
27.7778
27.7778
27.7778
27.7778
27.7778
27.7778
27.7778
27.7778
27.7778
27.7778
27.7778
27.7778
27.7778
27.7778
27.7778
27.7778
27.7777
27.7777
27.7777
27.7777
27.7777
27.7777
27.7777
27.7777
27.7776
27.7776
27.7775
27.7775
27.7774
27.7774
27.7773
27.7771
27.777
27.7768
27.7766
27.7763
27.776
27.7755
27.775
27.7744
27.7736
27.7727
27.7716
27.7702
27.7685
27.7665
27.764
27.7611
27.7576
27.7534
27.7484
27.7426
27.7358
27.728
27.7191
27.7092
27.6984
27.6872
27.6761
27.6663
27.6596
27.6589
27.6688
27.697
27.7561
27.8669
28.0605
28.3789
28.8652
29.5388
30.3496
31.121
31.5113
31.0765
29.3564
21.1472
21.8073
22.239
22.7071
23.1151
23.4852
23.8226
24.1303
24.4097
24.6621
24.8899
25.0953
25.2807
25.4485
25.6007
25.7391
25.8654
25.9809
26.087
26.1847
26.2749
26.3583
26.4358
26.5077
26.5747
26.6372
26.6954
26.7498
26.8006
26.848
26.8923
26.9337
26.9723
27.0083
27.042
27.0734
27.1027
27.1302
27.1558
27.1798
27.2024
27.2236
27.2435
27.2624
27.2803
27.2974
27.3137
27.3293
27.3444
27.3589
27.3731
27.3868
27.4002
27.4133
27.4262
27.4389
27.4513
27.4635
27.4756
27.4874
27.4991
27.5106
27.5219
27.5329
27.5438
27.5544
27.5648
27.575
27.5848
27.5945
27.6038
27.6128
27.6216
27.6301
27.6382
27.6461
27.6536
27.6609
27.6678
27.6744
27.6808
27.6868
27.6926
27.698
27.7032
27.7081
27.7128
27.7172
27.7214
27.7253
27.729
27.7324
27.7357
27.7387
27.7416
27.7443
27.7468
27.7491
27.7513
27.7534
27.7553
27.757
27.7587
27.7602
27.7616
27.763
27.7642
27.7653
27.7663
27.7673
27.7682
27.769
27.7698
27.7705
27.7711
27.7717
27.7722
27.7727
27.7732
27.7736
27.774
27.7743
27.7747
27.775
27.7752
27.7755
27.7757
27.7759
27.7761
27.7762
27.7764
27.7765
27.7767
27.7768
27.7769
27.777
27.777
27.7771
27.7772
27.7773
27.7773
27.7774
27.7774
27.7774
27.7775
27.7775
27.7775
27.7776
27.7776
27.7776
27.7776
27.7776
27.7777
27.7777
27.7777
27.7777
27.7777
27.7777
27.7777
27.7777
27.7777
27.7777
27.7777
27.7778
27.7778
27.7778
27.7778
27.7778
27.7778
27.7778
27.7778
27.7778
27.7778
27.7778
27.7778
27.7778
27.7778
27.7778
27.7778
27.7778
27.7778
27.7778
27.7778
27.7778
27.7778
27.7778
27.7778
27.7778
27.7778
27.7778
27.7778
27.7778
27.7778
27.7778
27.7778
27.7778
27.7778
27.7778
27.7778
27.7778
27.7778
27.7778
27.7778
27.7778
27.7778
27.7778
27.7778
27.7778
27.7778
27.7778
27.7778
27.7778
27.7778
27.7778
27.7778
27.7778
27.7778
27.7778
27.7778
27.7778
27.7778
27.7778
27.7778
27.7778
27.7778
27.7778
27.7778
27.7778
27.7778
27.7778
27.7778
27.7778
27.7778
27.7778
27.7778
27.7778
27.7778
27.7778
27.7778
27.7778
27.7778
27.7778
27.7778
27.7778
27.7778
27.7778
27.7778
27.7778
27.7778
27.7778
27.7778
27.7778
27.7778
27.7778
27.7778
27.7778
27.7778
27.7778
27.7778
27.7778
27.7778
27.7778
27.7778
27.7778
27.7778
27.7778
27.7778
27.7778
27.7778
27.7778
27.7778
27.7778
27.7778
27.7778
27.7778
27.7778
27.7778
27.7778
27.7778
27.7778
27.7778
27.7778
27.7778
27.7778
27.7778
27.7778
27.7778
27.7778
27.7778
27.7778
27.7778
27.7778
27.7778
27.7778
27.7778
27.7778
27.7778
27.7778
27.7778
27.7778
27.7778
27.7778
27.7778
27.7778
27.7778
27.7778
27.7778
27.7778
27.7778
27.7778
27.7778
27.7778
27.7778
27.7778
27.7778
27.7778
27.7778
27.7778
27.7778
27.7778
27.7778
27.7778
27.7778
27.7778
27.7778
27.7778
27.7778
27.7778
27.7778
27.7778
27.7778
27.7778
27.7778
27.7778
27.7778
27.7778
27.7778
27.7778
27.7778
27.7778
27.7778
27.7778
27.7778
27.7778
27.7778
27.7778
27.7778
27.7778
27.7778
27.7778
27.7778
27.7778
27.7778
27.7778
27.7778
27.7778
27.7778
27.7778
27.7778
27.7778
27.7778
27.7778
27.7778
27.7778
27.7778
27.7778
27.7778
27.7778
27.7778
27.7778
27.7778
27.7778
27.7778
27.7778
27.7778
27.7778
27.7778
27.7778
27.7778
27.7778
27.7778
27.7778
27.7778
27.7778
27.7778
27.7778
27.7778
27.7778
27.7778
27.7778
27.7778
27.7778
27.7778
27.7778
27.7778
27.7778
27.7778
27.7778
27.7778
27.7778
27.7778
27.7778
27.7778
27.7778
27.7778
27.7778
27.7778
27.7778
27.7778
27.7778
27.7778
27.7778
27.7778
27.7778
27.7778
27.7778
27.7778
27.7778
27.7778
27.7778
27.7778
27.7778
27.7778
27.7778
27.7778
27.7778
27.7778
27.7778
27.7778
27.7778
27.7778
27.7778
27.7778
27.7778
27.7778
27.7778
27.7778
27.7778
27.7778
27.7778
27.7778
27.7778
27.7778
27.7778
27.7778
27.7778
27.7778
27.7778
27.7778
27.7778
27.7778
27.7778
27.7778
27.7778
27.7778
27.7778
27.7778
27.7778
27.7778
27.7778
27.7778
27.7778
27.7778
27.7778
27.7778
27.7778
27.7778
27.7778
27.7778
27.7778
27.7778
27.7778
27.7778
27.7778
27.7778
27.7778
27.7778
27.7778
27.7778
27.7778
27.7778
27.7778
27.7778
27.7778
27.7778
27.7778
27.7778
27.7778
27.7778
27.7778
27.7778
27.7778
27.7778
27.7778
27.7778
27.7778
27.7778
27.7778
27.7778
27.7778
27.7778
27.7778
27.7778
27.7778
27.7778
27.7778
27.7778
27.7778
27.7778
27.7778
27.7778
27.7778
27.7778
27.7778
27.7778
27.7778
27.7778
27.7778
27.7778
27.7778
27.7778
27.7778
27.7778
27.7778
27.7778
27.7778
27.7778
27.7778
27.7778
27.7778
27.7778
27.7778
27.7778
27.7778
27.7778
27.7778
27.7778
27.7778
27.7778
27.7778
27.7778
27.7778
27.7777
27.7777
27.7777
27.7777
27.7777
27.7777
27.7777
27.7776
27.7776
27.7776
27.7775
27.7775
27.7774
27.7773
27.7772
27.7771
27.7769
27.7767
27.7764
27.7761
27.7757
27.7753
27.7747
27.774
27.7731
27.772
27.7707
27.769
27.767
27.7646
27.7616
27.7579
27.7534
27.748
27.7415
27.7335
27.724
27.7126
27.6991
27.6832
27.6648
27.6437
27.6201
27.5946
27.5686
27.5446
27.5275
27.527
27.5614
27.6657
27.9014
28.3655
29.1849
30.477
32.2545
34.2884
35.9677
36.4527
19.8609
20.5795
20.8824
21.3357
21.77
22.1804
22.5635
22.9205
23.2518
23.5573
23.8376
24.0942
24.3286
24.5429
24.7389
24.9185
25.0834
25.2351
25.375
25.5043
25.6242
25.7355
25.8391
25.9357
26.0259
26.1103
26.1892
26.2631
26.3324
26.3974
26.4583
26.5154
26.569
26.6193
26.6665
26.7109
26.7525
26.7917
26.8286
26.8634
26.8962
26.9273
26.9569
26.985
27.0119
27.0376
27.0624
27.0863
27.1094
27.1319
27.1537
27.1751
27.196
27.2164
27.2366
27.2563
27.2758
27.2949
27.3138
27.3323
27.3505
27.3684
27.386
27.4032
27.4201
27.4366
27.4527
27.4684
27.4837
27.4985
27.5129
27.5269
27.5403
27.5533
27.5659
27.5779
27.5895
27.6005
27.6111
27.6213
27.6309
27.6401
27.6489
27.6572
27.6651
27.6726
27.6796
27.6863
27.6926
27.6985
27.7041
27.7094
27.7143
27.7189
27.7232
27.7273
27.7311
27.7346
27.7379
27.741
27.7439
27.7466
27.749
27.7513
27.7535
27.7555
27.7573
27.759
27.7606
27.762
27.7634
27.7646
27.7657
27.7668
27.7678
27.7686
27.7695
27.7702
27.7709
27.7715
27.7721
27.7726
27.7731
27.7735
27.7739
27.7743
27.7746
27.7749
27.7752
27.7755
27.7757
27.7759
27.7761
27.7763
27.7764
27.7766
27.7767
27.7768
27.7769
27.777
27.7771
27.7772
27.7772
27.7773
27.7773
27.7774
27.7774
27.7775
27.7775
27.7775
27.7776
27.7776
27.7776
27.7776
27.7776
27.7777
27.7777
27.7777
27.7777
27.7777
27.7777
27.7777
27.7777
27.7777
27.7777
27.7777
27.7778
27.7778
27.7778
27.7778
27.7778
27.7778
27.7778
27.7778
27.7778
27.7778
27.7778
27.7778
27.7778
27.7778
27.7778
27.7778
27.7778
27.7778
27.7778
27.7778
27.7778
27.7778
27.7778
27.7778
27.7778
27.7778
27.7778
27.7778
27.7778
27.7778
27.7778
27.7778
27.7778
27.7778
27.7778
27.7778
27.7778
27.7778
27.7778
27.7778
27.7778
27.7778
27.7778
27.7778
27.7778
27.7778
27.7778
27.7778
27.7778
27.7778
27.7778
27.7778
27.7778
27.7778
27.7778
27.7778
27.7778
27.7778
27.7778
27.7778
27.7778
27.7778
27.7778
27.7778
27.7778
27.7778
27.7778
27.7778
27.7778
27.7778
27.7778
27.7778
27.7778
27.7778
27.7778
27.7778
27.7778
27.7778
27.7778
27.7778
27.7778
27.7778
27.7778
27.7778
27.7778
27.7778
27.7778
27.7778
27.7778
27.7778
27.7778
27.7778
27.7778
27.7778
27.7778
27.7778
27.7778
27.7778
27.7778
27.7778
27.7778
27.7778
27.7778
27.7778
27.7778
27.7778
27.7778
27.7778
27.7778
27.7778
27.7778
27.7778
27.7778
27.7778
27.7778
27.7778
27.7778
27.7778
27.7778
27.7778
27.7778
27.7778
27.7778
27.7778
27.7778
27.7778
27.7778
27.7778
27.7778
27.7778
27.7778
27.7778
27.7778
27.7778
27.7778
27.7778
27.7778
27.7778
27.7778
27.7778
27.7778
27.7778
27.7778
27.7778
27.7778
27.7778
27.7778
27.7778
27.7778
27.7778
27.7778
27.7778
27.7778
27.7778
27.7778
27.7778
27.7778
27.7778
27.7778
27.7778
27.7778
27.7778
27.7778
27.7778
27.7778
27.7778
27.7778
27.7778
27.7778
27.7778
27.7778
27.7778
27.7778
27.7778
27.7778
27.7778
27.7778
27.7778
27.7778
27.7778
27.7778
27.7778
27.7778
27.7778
27.7778
27.7778
27.7778
27.7778
27.7778
27.7778
27.7778
27.7778
27.7778
27.7778
27.7778
27.7778
27.7778
27.7778
27.7778
27.7778
27.7778
27.7778
27.7778
27.7778
27.7778
27.7778
27.7778
27.7778
27.7778
27.7778
27.7778
27.7778
27.7778
27.7778
27.7778
27.7778
27.7778
27.7778
27.7778
27.7778
27.7778
27.7778
27.7778
27.7778
27.7778
27.7778
27.7778
27.7778
27.7778
27.7778
27.7778
27.7778
27.7778
27.7778
27.7778
27.7778
27.7778
27.7778
27.7778
27.7778
27.7778
27.7778
27.7778
27.7778
27.7778
27.7778
27.7778
27.7778
27.7778
27.7778
27.7778
27.7778
27.7778
27.7778
27.7778
27.7778
27.7778
27.7778
27.7778
27.7778
27.7778
27.7778
27.7778
27.7778
27.7778
27.7778
27.7778
27.7778
27.7778
27.7778
27.7778
27.7778
27.7778
27.7778
27.7778
27.7778
27.7778
27.7778
27.7778
27.7778
27.7778
27.7778
27.7778
27.7778
27.7778
27.7778
27.7778
27.7778
27.7778
27.7778
27.7778
27.7778
27.7778
27.7778
27.7778
27.7778
27.7778
27.7778
27.7778
27.7778
27.7778
27.7778
27.7778
27.7778
27.7778
27.7778
27.7778
27.7778
27.7778
27.7778
27.7778
27.7778
27.7778
27.7778
27.7778
27.7778
27.7778
27.7778
27.7778
27.7778
27.7778
27.7778
27.7778
27.7778
27.7778
27.7778
27.7778
27.7778
27.7778
27.7778
27.7778
27.7778
27.7778
27.7778
27.7778
27.7778
27.7778
27.7778
27.7778
27.7778
27.7778
27.7778
27.7778
27.7778
27.7778
27.7778
27.7778
27.7778
27.7778
27.7778
27.7778
27.7778
27.7778
27.7778
27.7778
27.7778
27.7778
27.7778
27.7778
27.7778
27.7778
27.7778
27.7778
27.7778
27.7778
27.7778
27.7778
27.7778
27.7778
27.7778
27.7778
27.7778
27.7778
27.7778
27.7778
27.7777
27.7777
27.7777
27.7777
27.7777
27.7777
27.7777
27.7776
27.7776
27.7776
27.7775
27.7775
27.7774
27.7773
27.7772
27.7771
27.7769
27.7767
27.7765
27.7762
27.7758
27.7754
27.7748
27.7741
27.7732
27.7722
27.7709
27.7693
27.7673
27.7649
27.762
27.7583
27.7539
27.7484
27.7418
27.7337
27.7238
27.7119
27.6974
27.68
27.6591
27.6343
27.6049
27.5706
27.5312
27.487
27.4393
27.3908
27.3481
27.3241
27.3459
27.4674
27.7872
28.4657
29.7168
31.7356
34.5364
37.6442
40.1607
19.8956
20.32
20.4373
20.7456
21.0936
21.4514
21.8
22.1345
22.4535
22.7556
23.04
23.3063
23.5547
23.7859
24.001
24.201
24.3871
24.5604
24.722
24.873
25.0143
25.1466
25.2707
25.3873
25.4969
25.6001
25.6973
25.7889
25.8753
25.9568
26.0337
26.1062
26.1747
26.2394
26.3004
26.3581
26.4126
26.4641
26.513
26.5593
26.6033
26.6452
26.6851
26.7233
26.7599
26.7951
26.829
26.8618
26.8936
26.9244
26.9545
26.9838
27.0125
27.0405
27.0681
27.095
27.1215
27.1475
27.173
27.198
27.2226
27.2466
27.2701
27.2932
27.3156
27.3375
27.3589
27.3796
27.3997
27.4193
27.4381
27.4564
27.474
27.4909
27.5072
27.5228
27.5378
27.5522
27.5659
27.5789
27.5914
27.6032
27.6145
27.6251
27.6352
27.6448
27.6538
27.6623
27.6703
27.6779
27.685
27.6917
27.6979
27.7038
27.7093
27.7144
27.7192
27.7237
27.7279
27.7318
27.7354
27.7387
27.7419
27.7448
27.7475
27.7499
27.7523
27.7544
27.7564
27.7582
27.7599
27.7614
27.7628
27.7641
27.7653
27.7664
27.7675
27.7684
27.7692
27.77
27.7707
27.7714
27.772
27.7725
27.773
27.7735
27.7739
27.7743
27.7746
27.7749
27.7752
27.7755
27.7757
27.7759
27.7761
27.7763
27.7764
27.7766
27.7767
27.7768
27.7769
27.777
27.7771
27.7772
27.7772
27.7773
27.7773
27.7774
27.7774
27.7775
27.7775
27.7775
27.7776
27.7776
27.7776
27.7776
27.7777
27.7777
27.7777
27.7777
27.7777
27.7777
27.7777
27.7777
27.7777
27.7777
27.7777
27.7777
27.7778
27.7778
27.7778
27.7778
27.7778
27.7778
27.7778
27.7778
27.7778
27.7778
27.7778
27.7778
27.7778
27.7778
27.7778
27.7778
27.7778
27.7778
27.7778
27.7778
27.7778
27.7778
27.7778
27.7778
27.7778
27.7778
27.7778
27.7778
27.7778
27.7778
27.7778
27.7778
27.7778
27.7778
27.7778
27.7778
27.7778
27.7778
27.7778
27.7778
27.7778
27.7778
27.7778
27.7778
27.7778
27.7778
27.7778
27.7778
27.7778
27.7778
27.7778
27.7778
27.7778
27.7778
27.7778
27.7778
27.7778
27.7778
27.7778
27.7778
27.7778
27.7778
27.7778
27.7778
27.7778
27.7778
27.7778
27.7778
27.7778
27.7778
27.7778
27.7778
27.7778
27.7778
27.7778
27.7778
27.7778
27.7778
27.7778
27.7778
27.7778
27.7778
27.7778
27.7778
27.7778
27.7778
27.7778
27.7778
27.7778
27.7778
27.7778
27.7778
27.7778
27.7778
27.7778
27.7778
27.7778
27.7778
27.7778
27.7778
27.7778
27.7778
27.7778
27.7778
27.7778
27.7778
27.7778
27.7778
27.7778
27.7778
27.7778
27.7778
27.7778
27.7778
27.7778
27.7778
27.7778
27.7778
27.7778
27.7778
27.7778
27.7778
27.7778
27.7778
27.7778
27.7778
27.7778
27.7778
27.7778
27.7778
27.7778
27.7778
27.7778
27.7778
27.7778
27.7778
27.7778
27.7778
27.7778
27.7778
27.7778
27.7778
27.7778
27.7778
27.7778
27.7778
27.7778
27.7778
27.7778
27.7778
27.7778
27.7778
27.7778
27.7778
27.7778
27.7778
27.7778
27.7778
27.7778
27.7778
27.7778
27.7778
27.7778
27.7778
27.7778
27.7778
27.7778
27.7778
27.7778
27.7778
27.7778
27.7778
27.7778
27.7778
27.7778
27.7778
27.7778
27.7778
27.7778
27.7778
27.7778
27.7778
27.7778
27.7778
27.7778
27.7778
27.7778
27.7778
27.7778
27.7778
27.7778
27.7778
27.7778
27.7778
27.7778
27.7778
27.7778
27.7778
27.7778
27.7778
27.7778
27.7778
27.7778
27.7778
27.7778
27.7778
27.7778
27.7778
27.7778
27.7778
27.7778
27.7778
27.7778
27.7778
27.7778
27.7778
27.7778
27.7778
27.7778
27.7778
27.7778
27.7778
27.7778
27.7778
27.7778
27.7778
27.7778
27.7778
27.7778
27.7778
27.7778
27.7778
27.7778
27.7778
27.7778
27.7778
27.7778
27.7778
27.7778
27.7778
27.7778
27.7778
27.7778
27.7778
27.7778
27.7778
27.7778
27.7778
27.7778
27.7778
27.7778
27.7778
27.7778
27.7778
27.7778
27.7778
27.7778
27.7778
27.7778
27.7778
27.7778
27.7778
27.7778
27.7778
27.7778
27.7778
27.7778
27.7778
27.7778
27.7778
27.7778
27.7778
27.7778
27.7778
27.7778
27.7778
27.7778
27.7778
27.7778
27.7778
27.7778
27.7778
27.7778
27.7778
27.7778
27.7778
27.7778
27.7778
27.7778
27.7778
27.7778
27.7778
27.7778
27.7778
27.7778
27.7778
27.7778
27.7778
27.7778
27.7778
27.7778
27.7778
27.7778
27.7778
27.7778
27.7778
27.7778
27.7778
27.7778
27.7778
27.7778
27.7778
27.7778
27.7778
27.7778
27.7778
27.7778
27.7778
27.7778
27.7778
27.7778
27.7778
27.7778
27.7778
27.7778
27.7778
27.7778
27.7778
27.7778
27.7778
27.7778
27.7778
27.7778
27.7778
27.7778
27.7778
27.7778
27.7778
27.7778
27.7778
27.7778
27.7778
27.7778
27.7778
27.7778
27.7778
27.7778
27.7778
27.7778
27.7778
27.7778
27.7778
27.7778
27.7778
27.7778
27.7778
27.7778
27.7778
27.7778
27.7778
27.7778
27.7778
27.7778
27.7778
27.7778
27.7778
27.7778
27.7778
27.7778
27.7778
27.7778
27.7778
27.7778
27.7777
27.7777
27.7777
27.7777
27.7777
27.7777
27.7777
27.7776
27.7776
27.7776
27.7775
27.7775
27.7774
27.7773
27.7772
27.777
27.7769
27.7767
27.7764
27.7761
27.7757
27.7752
27.7746
27.7738
27.7729
27.7718
27.7704
27.7686
27.7665
27.7638
27.7606
27.7565
27.7516
27.7454
27.7378
27.7285
27.717
27.7028
27.6854
27.664
27.6377
27.6055
27.5661
27.5182
27.4602
27.3906
27.3079
27.2119
27.1037
26.9889
26.883
26.8227
26.8893
27.2413
28.1476
29.9717
33.0572
37.3038
42.1113
19.9168
20.1859
20.1773
20.3498
20.5954
20.8838
21.1861
21.4886
21.7853
22.0732
22.3505
22.6156
22.8678
23.1065
23.332
23.5446
23.7449
23.9336
24.1115
24.2792
24.4374
24.5868
24.7281
24.8617
24.9882
25.108
25.2216
25.3292
25.4313
25.5281
25.62
25.7071
25.7898
25.8683
25.9427
26.0134
26.0805
26.1443
26.205
26.2628
26.3179
26.3706
26.421
26.4693
26.5157
26.5604
26.6035
26.6452
26.6856
26.7249
26.7632
26.8004
26.8369
26.8724
26.9073
26.9414
26.9748
27.0075
27.0395
27.0709
27.1015
27.1315
27.1608
27.1894
27.2173
27.2444
27.2707
27.2963
27.3211
27.3451
27.3682
27.3906
27.4121
27.4327
27.4526
27.4716
27.4898
27.5072
27.5238
27.5397
27.5547
27.569
27.5826
27.5954
27.6076
27.6191
27.63
27.6402
27.6498
27.6589
27.6674
27.6754
27.6829
27.6899
27.6965
27.7026
27.7083
27.7137
27.7186
27.7233
27.7276
27.7316
27.7353
27.7387
27.7419
27.7449
27.7476
27.7502
27.7525
27.7547
27.7566
27.7585
27.7602
27.7617
27.7631
27.7644
27.7656
27.7667
27.7677
27.7687
27.7695
27.7703
27.771
27.7716
27.7722
27.7728
27.7732
27.7737
27.7741
27.7745
27.7748
27.7751
27.7754
27.7756
27.7758
27.776
27.7762
27.7764
27.7765
27.7767
27.7768
27.7769
27.777
27.7771
27.7771
27.7772
27.7773
27.7773
27.7774
27.7774
27.7775
27.7775
27.7775
27.7776
27.7776
27.7776
27.7776
27.7777
27.7777
27.7777
27.7777
27.7777
27.7777
27.7777
27.7777
27.7777
27.7777
27.7777
27.7777
27.7778
27.7778
27.7778
27.7778
27.7778
27.7778
27.7778
27.7778
27.7778
27.7778
27.7778
27.7778
27.7778
27.7778
27.7778
27.7778
27.7778
27.7778
27.7778
27.7778
27.7778
27.7778
27.7778
27.7778
27.7778
27.7778
27.7778
27.7778
27.7778
27.7778
27.7778
27.7778
27.7778
27.7778
27.7778
27.7778
27.7778
27.7778
27.7778
27.7778
27.7778
27.7778
27.7778
27.7778
27.7778
27.7778
27.7778
27.7778
27.7778
27.7778
27.7778
27.7778
27.7778
27.7778
27.7778
27.7778
27.7778
27.7778
27.7778
27.7778
27.7778
27.7778
27.7778
27.7778
27.7778
27.7778
27.7778
27.7778
27.7778
27.7778
27.7778
27.7778
27.7778
27.7778
27.7778
27.7778
27.7778
27.7778
27.7778
27.7778
27.7778
27.7778
27.7778
27.7778
27.7778
27.7778
27.7778
27.7778
27.7778
27.7778
27.7778
27.7778
27.7778
27.7778
27.7778
27.7778
27.7778
27.7778
27.7778
27.7778
27.7778
27.7778
27.7778
27.7778
27.7778
27.7778
27.7778
27.7778
27.7778
27.7778
27.7778
27.7778
27.7778
27.7778
27.7778
27.7778
27.7778
27.7778
27.7778
27.7778
27.7778
27.7778
27.7778
27.7778
27.7778
27.7778
27.7778
27.7778
27.7778
27.7778
27.7778
27.7778
27.7778
27.7778
27.7778
27.7778
27.7778
27.7778
27.7778
27.7778
27.7778
27.7778
27.7778
27.7778
27.7778
27.7778
27.7778
27.7778
27.7778
27.7778
27.7778
27.7778
27.7778
27.7778
27.7778
27.7778
27.7778
27.7778
27.7778
27.7778
27.7778
27.7778
27.7778
27.7778
27.7778
27.7778
27.7778
27.7778
27.7778
27.7778
27.7778
27.7778
27.7778
27.7778
27.7778
27.7778
27.7778
27.7778
27.7778
27.7778
27.7778
27.7778
27.7778
27.7778
27.7778
27.7778
27.7778
27.7778
27.7778
27.7778
27.7778
27.7778
27.7778
27.7778
27.7778
27.7778
27.7778
27.7778
27.7778
27.7778
27.7778
27.7778
27.7778
27.7778
27.7778
27.7778
27.7778
27.7778
27.7778
27.7778
27.7778
27.7778
27.7778
27.7778
27.7778
27.7778
27.7778
27.7778
27.7778
27.7778
27.7778
27.7778
27.7778
27.7778
27.7778
27.7778
27.7778
27.7778
27.7778
27.7778
27.7778
27.7778
27.7778
27.7778
27.7778
27.7778
27.7778
27.7778
27.7778
27.7778
27.7778
27.7778
27.7778
27.7778
27.7778
27.7778
27.7778
27.7778
27.7778
27.7778
27.7778
27.7778
27.7778
27.7778
27.7778
27.7778
27.7778
27.7778
27.7778
27.7778
27.7778
27.7778
27.7778
27.7778
27.7778
27.7778
27.7778
27.7778
27.7778
27.7778
27.7778
27.7778
27.7778
27.7778
27.7778
27.7778
27.7778
27.7778
27.7778
27.7778
27.7778
27.7778
27.7778
27.7778
27.7778
27.7778
27.7778
27.7778
27.7778
27.7778
27.7778
27.7778
27.7778
27.7778
27.7778
27.7778
27.7778
27.7778
27.7778
27.7778
27.7778
27.7778
27.7778
27.7778
27.7778
27.7778
27.7778
27.7778
27.7778
27.7778
27.7778
27.7778
27.7778
27.7778
27.7778
27.7778
27.7778
27.7778
27.7778
27.7778
27.7778
27.7778
27.7778
27.7778
27.7778
27.7778
27.7778
27.7778
27.7778
27.7778
27.7778
27.7778
27.7778
27.7778
27.7778
27.7778
27.7778
27.7778
27.7778
27.7778
27.7778
27.7778
27.7778
27.7778
27.7778
27.7778
27.7778
27.7778
27.7778
27.7778
27.7778
27.7778
27.7778
27.7778
27.7778
27.7778
27.7778
27.7778
27.7778
27.7778
27.7778
27.7778
27.7778
27.7778
27.7778
27.7778
27.7778
27.7778
27.7778
27.7778
27.7778
27.7778
27.7777
27.7777
27.7777
27.7777
27.7777
27.7777
27.7777
27.7776
27.7776
27.7776
27.7775
27.7774
27.7774
27.7773
27.7772
27.777
27.7768
27.7766
27.7763
27.776
27.7756
27.7751
27.7744
27.7736
27.7727
27.7715
27.77
27.7681
27.7658
27.763
27.7594
27.7551
27.7496
27.7429
27.7345
27.724
27.711
27.6948
27.6746
27.6493
27.6178
27.5783
27.529
27.4672
27.3898
27.2931
27.1727
27.0238
26.8417
26.6234
26.3699
26.0952
25.8453
25.7358
26.0145
27.1178
29.6747
34.111
40.5459
19.9902
20.1563
20.0794
20.1478
20.2937
20.5007
20.7423
21.0001
21.2632
21.5258
21.7846
22.0374
22.2825
22.5187
22.7452
22.9619
23.1687
23.3658
23.5535
23.7323
23.9025
24.0646
24.2191
24.3662
24.5065
24.6402
24.7677
24.8893
25.0053
25.116
25.2215
25.322
25.418
25.5094
25.5966
25.6798
25.7591
25.8348
25.9071
25.9762
26.0423
26.1056
26.1664
26.2247
26.2809
26.3351
26.3874
26.438
26.4871
26.5348
26.5812
26.6264
26.6704
26.7135
26.7555
26.7966
26.8368
26.876
26.9144
26.952
26.9886
27.0243
27.0592
27.0931
27.1261
27.1582
27.1893
27.2195
27.2486
27.2768
27.304
27.3302
27.3553
27.3795
27.4027
27.4249
27.4461
27.4663
27.4856
27.504
27.5214
27.538
27.5537
27.5686
27.5827
27.5959
27.6085
27.6203
27.6314
27.6418
27.6516
27.6608
27.6694
27.6774
27.685
27.692
27.6986
27.7047
27.7104
27.7157
27.7206
27.7252
27.7294
27.7334
27.737
27.7404
27.7435
27.7464
27.7491
27.7515
27.7538
27.7559
27.7578
27.7596
27.7612
27.7627
27.764
27.7653
27.7664
27.7675
27.7684
27.7693
27.7701
27.7708
27.7715
27.7721
27.7727
27.7732
27.7736
27.774
27.7744
27.7747
27.775
27.7753
27.7756
27.7758
27.776
27.7762
27.7764
27.7765
27.7767
27.7768
27.7769
27.777
27.7771
27.7771
27.7772
27.7773
27.7773
27.7774
27.7774
27.7775
27.7775
27.7775
27.7776
27.7776
27.7776
27.7776
27.7777
27.7777
27.7777
27.7777
27.7777
27.7777
27.7777
27.7777
27.7777
27.7777
27.7777
27.7777
27.7778
27.7778
27.7778
27.7778
27.7778
27.7778
27.7778
27.7778
27.7778
27.7778
27.7778
27.7778
27.7778
27.7778
27.7778
27.7778
27.7778
27.7778
27.7778
27.7778
27.7778
27.7778
27.7778
27.7778
27.7778
27.7778
27.7778
27.7778
27.7778
27.7778
27.7778
27.7778
27.7778
27.7778
27.7778
27.7778
27.7778
27.7778
27.7778
27.7778
27.7778
27.7778
27.7778
27.7778
27.7778
27.7778
27.7778
27.7778
27.7778
27.7778
27.7778
27.7778
27.7778
27.7778
27.7778
27.7778
27.7778
27.7778
27.7778
27.7778
27.7778
27.7778
27.7778
27.7778
27.7778
27.7778
27.7778
27.7778
27.7778
27.7778
27.7778
27.7778
27.7778
27.7778
27.7778
27.7778
27.7778
27.7778
27.7778
27.7778
27.7778
27.7778
27.7778
27.7778
27.7778
27.7778
27.7778
27.7778
27.7778
27.7778
27.7778
27.7778
27.7778
27.7778
27.7778
27.7778
27.7778
27.7778
27.7778
27.7778
27.7778
27.7778
27.7778
27.7778
27.7778
27.7778
27.7778
27.7778
27.7778
27.7778
27.7778
27.7778
27.7778
27.7778
27.7778
27.7778
27.7778
27.7778
27.7778
27.7778
27.7778
27.7778
27.7778
27.7778
27.7778
27.7778
27.7778
27.7778
27.7778
27.7778
27.7778
27.7778
27.7778
27.7778
27.7778
27.7778
27.7778
27.7778
27.7778
27.7778
27.7778
27.7778
27.7778
27.7778
27.7778
27.7778
27.7778
27.7778
27.7778
27.7778
27.7778
27.7778
27.7778
27.7778
27.7778
27.7778
27.7778
27.7778
27.7778
27.7778
27.7778
27.7778
27.7778
27.7778
27.7778
27.7778
27.7778
27.7778
27.7778
27.7778
27.7778
27.7778
27.7778
27.7778
27.7778
27.7778
27.7778
27.7778
27.7778
27.7778
27.7778
27.7778
27.7778
27.7778
27.7778
27.7778
27.7778
27.7778
27.7778
27.7778
27.7778
27.7778
27.7778
27.7778
27.7778
27.7778
27.7778
27.7778
27.7778
27.7778
27.7778
27.7778
27.7778
27.7778
27.7778
27.7778
27.7778
27.7778
27.7778
27.7778
27.7778
27.7778
27.7778
27.7778
27.7778
27.7778
27.7778
27.7778
27.7778
27.7778
27.7778
27.7778
27.7778
27.7778
27.7778
27.7778
27.7778
27.7778
27.7778
27.7778
27.7778
27.7778
27.7778
27.7778
27.7778
27.7778
27.7778
27.7778
27.7778
27.7778
27.7778
27.7778
27.7778
27.7778
27.7778
27.7778
27.7778
27.7778
27.7778
27.7778
27.7778
27.7778
27.7778
27.7778
27.7778
27.7778
27.7778
27.7778
27.7778
27.7778
27.7778
27.7778
27.7778
27.7778
27.7778
27.7778
27.7778
27.7778
27.7778
27.7778
27.7778
27.7778
27.7778
27.7778
27.7778
27.7778
27.7778
27.7778
27.7778
27.7778
27.7778
27.7778
27.7778
27.7778
27.7778
27.7778
27.7778
27.7778
27.7778
27.7778
27.7778
27.7778
27.7778
27.7778
27.7778
27.7778
27.7778
27.7778
27.7778
27.7778
27.7778
27.7778
27.7778
27.7778
27.7778
27.7778
27.7778
27.7778
27.7778
27.7778
27.7778
27.7778
27.7778
27.7778
27.7778
27.7778
27.7778
27.7778
27.7778
27.7778
27.7778
27.7778
27.7778
27.7778
27.7778
27.7778
27.7778
27.7778
27.7778
27.7778
27.7778
27.7778
27.7778
27.7778
27.7778
27.7778
27.7778
27.7778
27.7778
27.7778
27.7778
27.7778
27.7778
27.7778
27.7778
27.7778
27.7778
27.7778
27.7778
27.7778
27.7778
27.7778
27.7778
27.7778
27.7778
27.7778
27.7778
27.7778
27.7778
27.7778
27.7778
27.7778
27.7778
27.7778
27.7778
27.7778
27.7778
27.7778
27.7778
27.7778
27.7778
27.7777
27.7777
27.7777
27.7777
27.7777
27.7777
27.7777
27.7776
27.7776
27.7776
27.7775
27.7774
27.7774
27.7773
27.7771
27.777
27.7768
27.7766
27.7763
27.776
27.7755
27.775
27.7743
27.7735
27.7725
27.7713
27.7697
27.7678
27.7654
27.7624
27.7587
27.754
27.7482
27.741
27.732
27.7206
27.7063
27.6884
27.6657
27.6371
27.6009
27.5549
27.4963
27.4216
27.3261
27.2037
27.0468
26.8464
26.5914
26.2698
25.8701
25.3845
24.822
24.2379
23.8009
23.8973
25.2669
28.7782
35.4759
20.0652
20.1649
20.0569
20.0592
20.127
20.2579
20.4348
20.6411
20.8637
21.0944
21.328
21.5613
21.7919
22.0181
22.2386
22.4526
22.6595
22.859
23.0511
23.2359
23.4135
23.5841
23.7478
23.905
24.056
24.2008
24.3398
24.4731
24.601
24.7236
24.8412
24.9538
25.0618
25.1652
25.2642
25.3591
25.4499
25.5369
25.6203
25.7003
25.777
25.8507
25.9216
25.9898
26.0555
26.119
26.1804
26.2398
26.2974
26.3534
26.4078
26.4607
26.5123
26.5626
26.6117
26.6596
26.7064
26.7521
26.7967
26.8401
26.8825
26.9238
26.964
27.0031
27.041
27.0778
27.1135
27.148
27.1813
27.2135
27.2444
27.2742
27.3029
27.3303
27.3566
27.3818
27.4058
27.4287
27.4505
27.4712
27.4909
27.5096
27.5273
27.544