/*--------------------------------*- C++ -*----------------------------------*\
  =========                 |
  \\      /  F ield         | OpenFOAM: The Open Source CFD Toolbox
   \\    /   O peration     | Website:  https://openfoam.org
    \\  /    A nd           | Version:  9
     \\/     M anipulation  |
\*---------------------------------------------------------------------------*/
FoamFile
{
    format      ascii;
    class       volScalarField;
    location    "0.5";
    object      f_8;
}
// * * * * * * * * * * * * * * * * * * * * * * * * * * * * * * * * * * * * * //

dimensions      [1 -3 0 0 0 0 0];

internalField   nonuniform List<scalar> 
120000
(
48.1159
43.5993
40.396
38.185
36.6025
35.3997
34.4355
33.6405
32.9788
32.4271
31.9665
31.5812
31.2577
30.9849
30.7538
30.5571
30.389
30.2445
30.1199
30.0118
29.9176
29.8353
29.763
29.6993
29.6429
29.5929
29.5484
29.5086
29.4729
29.4408
29.4116
29.3851
29.3608
29.3384
29.3174
29.2976
29.2787
29.2605
29.2426
29.2249
29.2072
29.1892
29.1708
29.1519
29.1323
29.1119
29.0907
29.0685
29.0454
29.0213
28.9963
28.9702
28.9432
28.9153
28.8866
28.8571
28.827
28.7962
28.7649
28.7333
28.7013
28.6691
28.6368
28.6045
28.5724
28.5404
28.5087
28.4774
28.4465
28.4162
28.3865
28.3574
28.329
28.3014
28.2745
28.2485
28.2234
28.1991
28.1757
28.1532
28.1315
28.1108
28.091
28.0721
28.054
28.0369
28.0205
28.005
27.9903
27.9763
27.9631
27.9507
27.9389
27.9278
27.9174
27.9075
27.8983
27.8897
27.8816
27.874
27.8668
27.8602
27.854
27.8482
27.8428
27.8377
27.8331
27.8287
27.8247
27.8209
27.8174
27.8142
27.8112
27.8084
27.8059
27.8035
27.8013
27.7993
27.7975
27.7958
27.7942
27.7927
27.7914
27.7902
27.7891
27.788
27.7871
27.7862
27.7855
27.7847
27.7841
27.7835
27.7829
27.7824
27.782
27.7816
27.7812
27.7809
27.7806
27.7803
27.78
27.7798
27.7796
27.7794
27.7792
27.7791
27.7789
27.7788
27.7787
27.7786
27.7785
27.7784
27.7784
27.7783
27.7782
27.7782
27.7781
27.7781
27.7781
27.778
27.778
27.778
27.7779
27.7779
27.7779
27.7779
27.7779
27.7779
27.7779
27.7778
27.7778
27.7778
27.7778
27.7778
27.7778
27.7778
27.7778
27.7778
27.7778
27.7778
27.7778
27.7778
27.7778
27.7778
27.7778
27.7778
27.7778
27.7778
27.7778
27.7778
27.7778
27.7778
27.7778
27.7778
27.7778
27.7778
27.7778
27.7778
27.7778
27.7778
27.7778
27.7778
27.7778
27.7778
27.7778
27.7778
27.7778
27.7778
27.7778
27.7778
27.7778
27.7778
27.7778
27.7778
27.7778
27.7778
27.7778
27.7778
27.7778
27.7778
27.7778
27.7778
27.7778
27.7778
27.7778
27.7778
27.7778
27.7778
27.7778
27.7778
27.7778
27.7778
27.7778
27.7778
27.7778
27.7778
27.7778
27.7778
27.7778
27.7778
27.7778
27.7778
27.7778
27.7778
27.7778
27.7778
27.7778
27.7778
27.7778
27.7778
27.7778
27.7778
27.7778
27.7778
27.7778
27.7778
27.7778
27.7778
27.7778
27.7778
27.7778
27.7778
27.7778
27.7778
27.7778
27.7778
27.7778
27.7778
27.7778
27.7778
27.7778
27.7778
27.7778
27.7778
27.7778
27.7778
27.7778
27.7778
27.7778
27.7778
27.7778
27.7778
27.7778
27.7778
27.7778
27.7778
27.7778
27.7778
27.7778
27.7778
27.7778
27.7778
27.7778
27.7778
27.7778
27.7778
27.7778
27.7778
27.7778
27.7778
27.7778
27.7778
27.7778
27.7778
27.7778
27.7778
27.7778
27.7778
27.7778
27.7778
27.7778
27.7778
27.7778
27.7778
27.7778
27.7778
27.7778
27.7778
27.7778
27.7778
27.7778
27.7778
27.7778
27.7778
27.7778
27.7778
27.7778
27.7778
27.7778
27.7778
27.7778
27.7778
27.7778
27.7778
27.7778
27.7778
27.7778
27.7778
27.7778
27.7778
27.7778
27.7778
27.7778
27.7778
27.7778
27.7778
27.7778
27.7778
27.7778
27.7778
27.7778
27.7778
27.7778
27.7778
27.7778
27.7778
27.7778
27.7778
27.7778
27.7778
27.7778
27.7778
27.7778
27.7778
27.7778
27.7778
27.7778
27.7778
27.7778
27.7778
27.7778
27.7778
27.7778
27.7778
27.7778
27.7778
27.7778
27.7778
27.7778
27.7778
27.7778
27.7778
27.7778
27.7778
27.7778
27.7778
27.7778
27.7778
27.7778
27.7778
27.7778
27.7778
27.7778
27.7778
27.7778
27.7778
27.7778
27.7778
27.7778
27.7778
27.7778
27.7778
27.7778
27.7778
27.7778
27.7778
27.7778
27.7778
27.7778
27.7778
27.7778
27.7778
27.7778
27.7778
27.7778
27.7778
27.7778
27.7778
27.7778
27.7778
27.7778
27.7778
27.7778
27.7778
27.7778
27.7778
27.7778
27.7778
27.7778
27.7778
27.7778
27.7778
27.7778
27.7778
27.7778
27.7778
27.7778
27.7778
27.7778
27.7778
27.7778
27.7778
27.7778
27.7778
27.7778
27.7778
27.7778
27.7778
27.7778
27.7778
27.7778
27.7778
27.7778
27.7778
27.7778
27.7778
27.7778
27.7778
27.7778
27.7778
27.7778
27.7778
27.7778
27.7778
27.7778
27.7778
27.7778
27.7778
27.7778
27.7778
27.7778
27.7778
27.7778
27.7778
27.7778
27.7778
27.7778
27.7778
27.7778
27.7778
27.7778
27.7778
27.7778
27.7778
27.7778
27.7778
27.7778
27.7778
27.7778
27.7778
27.7778
27.7778
27.7778
27.7778
27.7778
27.7778
27.7778
27.7778
27.7778
27.7778
27.7778
27.7778
27.7778
27.7778
27.7778
27.7778
27.7778
27.7778
27.7778
27.7778
27.7778
27.7778
27.7778
27.7778
27.7778
27.7778
27.7778
27.7778
27.7778
27.7778
27.7778
27.7778
27.7778
27.7778
27.7778
27.7778
27.7778
27.7778
27.7778
27.7778
27.7778
27.7778
27.7778
27.7778
27.7778
27.7778
27.7778
27.7778
27.7778
27.7778
27.7778
27.7778
27.7778
27.7778
27.7778
27.7778
27.7778
27.7778
27.7778
27.7778
27.7778
27.7778
27.7778
27.7779
27.7779
27.7779
27.7779
27.778
27.778
27.7781
27.7781
27.7782
27.7783
27.7784
27.7785
27.7787
27.7789
27.7791
27.7794
27.7797
27.7801
27.7805
27.781
27.7816
27.7822
27.7828
27.7834
27.784
27.7844
27.7846
27.7843
27.7832
27.781
27.777
27.7705
27.7602
27.7449
27.7225
27.6908
27.6471
27.589
27.5155
27.4285
27.3355
27.2531
27.2021
27.2435
27.2782
27.8304
27.902
40.9425
37.08
35.3825
34.592
34.0957
33.6884
33.3228
32.9933
32.6986
32.4352
32.1989
31.9858
31.7931
31.6184
31.4598
31.3155
31.1841
31.0644
30.9552
30.8554
30.7641
30.6805
30.6039
30.5335
30.4688
30.4092
30.3542
30.3032
30.2558
30.2116
30.1701
30.131
30.0939
30.0584
30.0242
29.991
29.9585
29.9263
29.8942
29.8621
29.8295
29.7965
29.7628
29.7282
29.6927
29.6561
29.6185
29.5797
29.5398
29.4988
29.4567
29.4136
29.3696
29.3247
29.279
29.2327
29.1859
29.1388
29.0914
29.0439
28.9964
28.9491
28.9021
28.8556
28.8096
28.7643
28.7197
28.676
28.6332
28.5915
28.5509
28.5114
28.4731
28.4361
28.4004
28.3659
28.3327
28.3009
28.2704
28.2412
28.2133
28.1866
28.1613
28.1371
28.1142
28.0925
28.0719
28.0524
28.034
28.0166
28.0002
27.9848
27.9703
27.9566
27.9438
27.9318
27.9206
27.91
27.9002
27.891
27.8824
27.8744
27.8669
27.86
27.8536
27.8476
27.842
27.8368
27.832
27.8276
27.8235
27.8197
27.8162
27.8129
27.8099
27.8072
27.8046
27.8023
27.8001
27.7982
27.7963
27.7947
27.7931
27.7917
27.7905
27.7893
27.7882
27.7872
27.7863
27.7855
27.7848
27.7841
27.7835
27.7829
27.7824
27.782
27.7815
27.7812
27.7808
27.7805
27.7802
27.78
27.7797
27.7795
27.7793
27.7792
27.779
27.7789
27.7788
27.7787
27.7786
27.7785
27.7784
27.7783
27.7783
27.7782
27.7782
27.7781
27.7781
27.778
27.778
27.778
27.778
27.7779
27.7779
27.7779
27.7779
27.7779
27.7779
27.7778
27.7778
27.7778
27.7778
27.7778
27.7778
27.7778
27.7778
27.7778
27.7778
27.7778
27.7778
27.7778
27.7778
27.7778
27.7778
27.7778
27.7778
27.7778
27.7778
27.7778
27.7778
27.7778
27.7778
27.7778
27.7778
27.7778
27.7778
27.7778
27.7778
27.7778
27.7778
27.7778
27.7778
27.7778
27.7778
27.7778
27.7778
27.7778
27.7778
27.7778
27.7778
27.7778
27.7778
27.7778
27.7778
27.7778
27.7778
27.7778
27.7778
27.7778
27.7778
27.7778
27.7778
27.7778
27.7778
27.7778
27.7778
27.7778
27.7778
27.7778
27.7778
27.7778
27.7778
27.7778
27.7778
27.7778
27.7778
27.7778
27.7778
27.7778
27.7778
27.7778
27.7778
27.7778
27.7778
27.7778
27.7778
27.7778
27.7778
27.7778
27.7778
27.7778
27.7778
27.7778
27.7778
27.7778
27.7778
27.7778
27.7778
27.7778
27.7778
27.7778
27.7778
27.7778
27.7778
27.7778
27.7778
27.7778
27.7778
27.7778
27.7778
27.7778
27.7778
27.7778
27.7778
27.7778
27.7778
27.7778
27.7778
27.7778
27.7778
27.7778
27.7778
27.7778
27.7778
27.7778
27.7778
27.7778
27.7778
27.7778
27.7778
27.7778
27.7778
27.7778
27.7778
27.7778
27.7778
27.7778
27.7778
27.7778
27.7778
27.7778
27.7778
27.7778
27.7778
27.7778
27.7778
27.7778
27.7778
27.7778
27.7778
27.7778
27.7778
27.7778
27.7778
27.7778
27.7778
27.7778
27.7778
27.7778
27.7778
27.7778
27.7778
27.7778
27.7778
27.7778
27.7778
27.7778
27.7778
27.7778
27.7778
27.7778
27.7778
27.7778
27.7778
27.7778
27.7778
27.7778
27.7778
27.7778
27.7778
27.7778
27.7778
27.7778
27.7778
27.7778
27.7778
27.7778
27.7778
27.7778
27.7778
27.7778
27.7778
27.7778
27.7778
27.7778
27.7778
27.7778
27.7778
27.7778
27.7778
27.7778
27.7778
27.7778
27.7778
27.7778
27.7778
27.7778
27.7778
27.7778
27.7778
27.7778
27.7778
27.7778
27.7778
27.7778
27.7778
27.7778
27.7778
27.7778
27.7778
27.7778
27.7778
27.7778
27.7778
27.7778
27.7778
27.7778
27.7778
27.7778
27.7778
27.7778
27.7778
27.7778
27.7778
27.7778
27.7778
27.7778
27.7778
27.7778
27.7778
27.7778
27.7778
27.7778
27.7778
27.7778
27.7778
27.7778
27.7778
27.7778
27.7778
27.7778
27.7778
27.7778
27.7778
27.7778
27.7778
27.7778
27.7778
27.7778
27.7778
27.7778
27.7778
27.7778
27.7778
27.7778
27.7778
27.7778
27.7778
27.7778
27.7778
27.7778
27.7778
27.7778
27.7778
27.7778
27.7778
27.7778
27.7778
27.7778
27.7778
27.7778
27.7778
27.7778
27.7778
27.7778
27.7778
27.7778
27.7778
27.7778
27.7778
27.7778
27.7778
27.7778
27.7778
27.7778
27.7778
27.7778
27.7778
27.7778
27.7778
27.7778
27.7778
27.7778
27.7778
27.7778
27.7778
27.7778
27.7778
27.7778
27.7778
27.7778
27.7778
27.7778
27.7778
27.7778
27.7778
27.7778
27.7778
27.7778
27.7778
27.7778
27.7778
27.7778
27.7778
27.7778
27.7778
27.7778
27.7778
27.7778
27.7778
27.7778
27.7778
27.7778
27.7778
27.7778
27.7778
27.7778
27.7778
27.7778
27.7778
27.7778
27.7778
27.7778
27.7778
27.7778
27.7778
27.7778
27.7778
27.7778
27.7778
27.7778
27.7778
27.7778
27.7778
27.7778
27.7778
27.7778
27.7778
27.7778
27.7778
27.7778
27.7778
27.7778
27.7778
27.7778
27.7778
27.7778
27.7778
27.7778
27.7778
27.7778
27.7778
27.7778
27.7778
27.7778
27.7778
27.7778
27.7778
27.7778
27.7778
27.7778
27.7778
27.7778
27.7778
27.7778
27.7778
27.7778
27.7778
27.7778
27.7778
27.7778
27.7778
27.7778
27.7778
27.7779
27.7779
27.7779
27.7779
27.778
27.778
27.7781
27.7781
27.7782
27.7783
27.7784
27.7786
27.7787
27.7789
27.7792
27.7795
27.7798
27.7802
27.7806
27.7811
27.7816
27.7822
27.7827
27.7831
27.7833
27.7832
27.7825
27.7807
27.7775
27.7719
27.7628
27.7486
27.7269
27.6946
27.6473
27.5797
27.4852
27.357
27.1897
26.9829
26.7406
26.5166
26.1136
26.8841
22.1595
39.5093
37.5598
36.5776
35.9635
35.4752
35.0468
34.661
34.3105
33.9902
33.6965
33.4267
33.1789
32.9514
32.7425
32.551
32.3752
32.214
32.066
31.9301
31.8053
31.6904
31.5847
31.4873
31.3975
31.3144
31.2374
31.1659
31.0993
31.0371
30.9786
30.9235
30.8712
30.8212
30.7732
30.7266
30.6812
30.6365
30.5921
30.5478
30.5033
30.4583
30.4126
30.3659
30.3182
30.2693
30.219
30.1674
30.1144
30.0601
30.0043
29.9474
29.8892
29.8299
29.7697
29.7087
29.647
29.5848
29.5223
29.4597
29.3971
29.3347
29.2727
29.2112
29.1505
29.0906
29.0317
28.9739
28.9173
28.8621
28.8083
28.756
28.7052
28.6561
28.6087
28.5629
28.5189
28.4766
28.436
28.3972
28.3601
28.3246
28.2909
28.2587
28.2282
28.1992
28.1718
28.1458
28.1212
28.098
28.0761
28.0555
28.0361
28.0179
28.0007
27.9847
27.9696
27.9555
27.9424
27.93
27.9185
27.9078
27.8978
27.8885
27.8799
27.8718
27.8643
27.8574
27.8509
27.845
27.8395
27.8343
27.8296
27.8253
27.8212
27.8175
27.8141
27.8109
27.808
27.8054
27.8029
27.8007
27.7986
27.7967
27.795
27.7934
27.792
27.7906
27.7894
27.7883
27.7873
27.7864
27.7856
27.7848
27.7841
27.7835
27.7829
27.7824
27.7819
27.7815
27.7811
27.7808
27.7805
27.7802
27.7799
27.7797
27.7795
27.7793
27.7791
27.779
27.7789
27.7787
27.7786
27.7785
27.7784
27.7784
27.7783
27.7782
27.7782
27.7781
27.7781
27.7781
27.778
27.778
27.778
27.7779
27.7779
27.7779
27.7779
27.7779
27.7779
27.7779
27.7778
27.7778
27.7778
27.7778
27.7778
27.7778
27.7778
27.7778
27.7778
27.7778
27.7778
27.7778
27.7778
27.7778
27.7778
27.7778
27.7778
27.7778
27.7778
27.7778
27.7778
27.7778
27.7778
27.7778
27.7778
27.7778
27.7778
27.7778
27.7778
27.7778
27.7778
27.7778
27.7778
27.7778
27.7778
27.7778
27.7778
27.7778
27.7778
27.7778
27.7778
27.7778
27.7778
27.7778
27.7778
27.7778
27.7778
27.7778
27.7778
27.7778
27.7778
27.7778
27.7778
27.7778
27.7778
27.7778
27.7778
27.7778
27.7778
27.7778
27.7778
27.7778
27.7778
27.7778
27.7778
27.7778
27.7778
27.7778
27.7778
27.7778
27.7778
27.7778
27.7778
27.7778
27.7778
27.7778
27.7778
27.7778
27.7778
27.7778
27.7778
27.7778
27.7778
27.7778
27.7778
27.7778
27.7778
27.7778
27.7778
27.7778
27.7778
27.7778
27.7778
27.7778
27.7778
27.7778
27.7778
27.7778
27.7778
27.7778
27.7778
27.7778
27.7778
27.7778
27.7778
27.7778
27.7778
27.7778
27.7778
27.7778
27.7778
27.7778
27.7778
27.7778
27.7778
27.7778
27.7778
27.7778
27.7778
27.7778
27.7778
27.7778
27.7778
27.7778
27.7778
27.7778
27.7778
27.7778
27.7778
27.7778
27.7778
27.7778
27.7778
27.7778
27.7778
27.7778
27.7778
27.7778
27.7778
27.7778
27.7778
27.7778
27.7778
27.7778
27.7778
27.7778
27.7778
27.7778
27.7778
27.7778
27.7778
27.7778
27.7778
27.7778
27.7778
27.7778
27.7778
27.7778
27.7778
27.7778
27.7778
27.7778
27.7778
27.7778
27.7778
27.7778
27.7778
27.7778
27.7778
27.7778
27.7778
27.7778
27.7778
27.7778
27.7778
27.7778
27.7778
27.7778
27.7778
27.7778
27.7778
27.7778
27.7778
27.7778
27.7778
27.7778
27.7778
27.7778
27.7778
27.7778
27.7778
27.7778
27.7778
27.7778
27.7778
27.7778
27.7778
27.7778
27.7778
27.7778
27.7778
27.7778
27.7778
27.7778
27.7778
27.7778
27.7778
27.7778
27.7778
27.7778
27.7778
27.7778
27.7778
27.7778
27.7778
27.7778
27.7778
27.7778
27.7778
27.7778
27.7778
27.7778
27.7778
27.7778
27.7778
27.7778
27.7778
27.7778
27.7778
27.7778
27.7778
27.7778
27.7778
27.7778
27.7778
27.7778
27.7778
27.7778
27.7778
27.7778
27.7778
27.7778
27.7778
27.7778
27.7778
27.7778
27.7778
27.7778
27.7778
27.7778
27.7778
27.7778
27.7778
27.7778
27.7778
27.7778
27.7778
27.7778
27.7778
27.7778
27.7778
27.7778
27.7778
27.7778
27.7778
27.7778
27.7778
27.7778
27.7778
27.7778
27.7778
27.7778
27.7778
27.7778
27.7778
27.7778
27.7778
27.7778
27.7778
27.7778
27.7778
27.7778
27.7778
27.7778
27.7778
27.7778
27.7778
27.7778
27.7778
27.7778
27.7778
27.7778
27.7778
27.7778
27.7778
27.7778
27.7778
27.7778
27.7778
27.7778
27.7778
27.7778
27.7778
27.7778
27.7778
27.7778
27.7778
27.7778
27.7778
27.7778
27.7778
27.7778
27.7778
27.7778
27.7778
27.7778
27.7778
27.7778
27.7778
27.7778
27.7778
27.7778
27.7778
27.7778
27.7778
27.7778
27.7778
27.7778
27.7778
27.7778
27.7778
27.7778
27.7778
27.7778
27.7778
27.7778
27.7778
27.7778
27.7778
27.7778
27.7778
27.7778
27.7778
27.7778
27.7778
27.7778
27.7778
27.7778
27.7778
27.7778
27.7778
27.7778
27.7778
27.7778
27.7778
27.7778
27.7778
27.7778
27.7778
27.7778
27.7778
27.7778
27.7778
27.7778
27.7778
27.7778
27.7778
27.7778
27.7778
27.7778
27.7778
27.7778
27.7778
27.7778
27.7778
27.7778
27.7778
27.7778
27.7778
27.7778
27.7778
27.7778
27.7779
27.7779
27.7779
27.7779
27.778
27.778
27.7781
27.7781
27.7782
27.7783
27.7784
27.7786
27.7787
27.7789
27.7792
27.7795
27.7799
27.7803
27.7808
27.7814
27.782
27.7828
27.7836
27.7845
27.7854
27.7862
27.7869
27.7871
27.7866
27.7849
27.7814
27.7749
27.764
27.7465
27.7195
27.6787
27.6186
27.5318
27.4093
27.2411
27.0182
26.735
26.396
26.0339
25.5127
26.1421
20.1209
38.7384
37.3742
36.5908
36.0956
35.728
35.4196
35.1406
34.8793
34.6313
34.395
34.1699
33.956
33.7532
33.5616
33.3809
33.2111
33.0516
32.9022
32.7625
32.6318
32.5097
32.3957
32.2891
32.1895
32.0962
32.0088
31.9267
31.8494
31.7762
31.7069
31.6407
31.5772
31.516
31.4566
31.3984
31.3412
31.2845
31.228
31.1712
31.1139
31.0558
30.9966
30.9362
30.8745
30.8112
30.7464
30.6799
30.6119
30.5422
30.4711
30.3985
30.3246
30.2497
30.1737
30.097
30.0198
29.9421
29.8644
29.7867
29.7092
29.6323
29.556
29.4806
29.4063
29.3333
29.2616
29.1914
29.1229
29.0562
28.9913
28.9284
28.8675
28.8087
28.7519
28.6973
28.6449
28.5946
28.5464
28.5004
28.4564
28.4146
28.3747
28.3368
28.3009
28.2669
28.2346
28.2041
28.1754
28.1482
28.1227
28.0986
28.076
28.0547
28.0348
28.0161
27.9987
27.9823
27.967
27.9528
27.9394
27.927
27.9155
27.9047
27.8947
27.8854
27.8768
27.8688
27.8614
27.8546
27.8482
27.8423
27.8369
27.8319
27.8273
27.823
27.8191
27.8155
27.8122
27.8091
27.8063
27.8038
27.8014
27.7993
27.7973
27.7955
27.7938
27.7923
27.7909
27.7897
27.7885
27.7875
27.7866
27.7857
27.7849
27.7842
27.7836
27.783
27.7824
27.782
27.7815
27.7811
27.7808
27.7805
27.7802
27.7799
27.7797
27.7795
27.7793
27.7791
27.779
27.7789
27.7787
27.7786
27.7785
27.7784
27.7784
27.7783
27.7782
27.7782
27.7781
27.7781
27.7781
27.778
27.778
27.778
27.7779
27.7779
27.7779
27.7779
27.7779
27.7779
27.7778
27.7778
27.7778
27.7778
27.7778
27.7778
27.7778
27.7778
27.7778
27.7778
27.7778
27.7778
27.7778
27.7778
27.7778
27.7778
27.7778
27.7778
27.7778
27.7778
27.7778
27.7778
27.7778
27.7778
27.7778
27.7778
27.7778
27.7778
27.7778
27.7778
27.7778
27.7778
27.7778
27.7778
27.7778
27.7778
27.7778
27.7778
27.7778
27.7778
27.7778
27.7778
27.7778
27.7778
27.7778
27.7778
27.7778
27.7778
27.7778
27.7778
27.7778
27.7778
27.7778
27.7778
27.7778
27.7778
27.7778
27.7778
27.7778
27.7778
27.7778
27.7778
27.7778
27.7778
27.7778
27.7778
27.7778
27.7778
27.7778
27.7778
27.7778
27.7778
27.7778
27.7778
27.7778
27.7778
27.7778
27.7778
27.7778
27.7778
27.7778
27.7778
27.7778
27.7778
27.7778
27.7778
27.7778
27.7778
27.7778
27.7778
27.7778
27.7778
27.7778
27.7778
27.7778
27.7778
27.7778
27.7778
27.7778
27.7778
27.7778
27.7778
27.7778
27.7778
27.7778
27.7778
27.7778
27.7778
27.7778
27.7778
27.7778
27.7778
27.7778
27.7778
27.7778
27.7778
27.7778
27.7778
27.7778
27.7778
27.7778
27.7778
27.7778
27.7778
27.7778
27.7778
27.7778
27.7778
27.7778
27.7778
27.7778
27.7778
27.7778
27.7778
27.7778
27.7778
27.7778
27.7778
27.7778
27.7778
27.7778
27.7778
27.7778
27.7778
27.7778
27.7778
27.7778
27.7778
27.7778
27.7778
27.7778
27.7778
27.7778
27.7778
27.7778
27.7778
27.7778
27.7778
27.7778
27.7778
27.7778
27.7778
27.7778
27.7778
27.7778
27.7778
27.7778
27.7778
27.7778
27.7778
27.7778
27.7778
27.7778
27.7778
27.7778
27.7778
27.7778
27.7778
27.7778
27.7778
27.7778
27.7778
27.7778
27.7778
27.7778
27.7778
27.7778
27.7778
27.7778
27.7778
27.7778
27.7778
27.7778
27.7778
27.7778
27.7778
27.7778
27.7778
27.7778
27.7778
27.7778
27.7778
27.7778
27.7778
27.7778
27.7778
27.7778
27.7778
27.7778
27.7778
27.7778
27.7778
27.7778
27.7778
27.7778
27.7778
27.7778
27.7778
27.7778
27.7778
27.7778
27.7778
27.7778
27.7778
27.7778
27.7778
27.7778
27.7778
27.7778
27.7778
27.7778
27.7778
27.7778
27.7778
27.7778
27.7778
27.7778
27.7778
27.7778
27.7778
27.7778
27.7778
27.7778
27.7778
27.7778
27.7778
27.7778
27.7778
27.7778
27.7778
27.7778
27.7778
27.7778
27.7778
27.7778
27.7778
27.7778
27.7778
27.7778
27.7778
27.7778
27.7778
27.7778
27.7778
27.7778
27.7778
27.7778
27.7778
27.7778
27.7778
27.7778
27.7778
27.7778
27.7778
27.7778
27.7778
27.7778
27.7778
27.7778
27.7778
27.7778
27.7778
27.7778
27.7778
27.7778
27.7778
27.7778
27.7778
27.7778
27.7778
27.7778
27.7778
27.7778
27.7778
27.7778
27.7778
27.7778
27.7778
27.7778
27.7778
27.7778
27.7778
27.7778
27.7778
27.7778
27.7778
27.7778
27.7778
27.7778
27.7778
27.7778
27.7778
27.7778
27.7778
27.7778
27.7778
27.7778
27.7778
27.7778
27.7778
27.7778
27.7778
27.7778
27.7778
27.7778
27.7778
27.7778
27.7778
27.7778
27.7778
27.7778
27.7778
27.7778
27.7778
27.7778
27.7778
27.7778
27.7778
27.7778
27.7778
27.7778
27.7778
27.7778
27.7778
27.7778
27.7778
27.7778
27.7778
27.7778
27.7778
27.7778
27.7778
27.7778
27.7778
27.7778
27.7778
27.7778
27.7778
27.7778
27.7778
27.7778
27.7778
27.7778
27.7778
27.7778
27.7778
27.7778
27.7778
27.7778
27.7778
27.7778
27.7778
27.7778
27.7778
27.7778
27.7778
27.7778
27.7778
27.7778
27.7778
27.7778
27.7779
27.7779
27.7779
27.7779
27.778
27.778
27.7781
27.7781
27.7782
27.7783
27.7784
27.7785
27.7787
27.7789
27.7792
27.7795
27.7799
27.7803
27.7808
27.7814
27.7822
27.783
27.784
27.7851
27.7863
27.7876
27.7888
27.79
27.7908
27.791
27.79
27.7871
27.7813
27.7709
27.7536
27.7261
27.6838
27.6202
27.5271
27.3939
27.208
26.9571
26.6285
26.2288
25.7438
25.2244
25.3621
20.0222
38.3882
37.3472
36.7058
36.2957
36.0029
35.7676
35.5587
35.3616
35.1701
34.9824
34.7981
34.6176
34.4416
34.2708
34.1059
33.9473
33.7955
33.6506
33.5127
33.3818
33.2577
33.1402
33.0291
32.9239
32.8242
32.7298
32.6401
32.5548
32.4732
32.395
32.3196
32.2466
32.1755
32.1058
32.0371
31.9689
31.9009
31.8327
31.7638
31.6941
31.6231
31.5508
31.4769
31.4013
31.3239
31.2446
31.1634
31.0804
30.9956
30.9092
30.8213
30.7321
30.6417
30.5504
30.4585
30.3661
30.2735
30.1809
30.0887
29.997
29.9061
29.8163
29.7277
29.6405
29.555
29.4713
29.3895
29.3099
29.2324
29.1572
29.0845
29.0141
28.9463
28.881
28.8183
28.7581
28.7004
28.6453
28.5927
28.5426
28.4948
28.4495
28.4064
28.3656
28.327
28.2904
28.2559
28.2234
28.1927
28.1638
28.1367
28.1112
28.0873
28.0648
28.0438
28.0242
28.0058
27.9887
27.9727
27.9578
27.9439
27.9309
27.9189
27.9077
27.8974
27.8877
27.8788
27.8706
27.8629
27.8558
27.8493
27.8433
27.8377
27.8326
27.8278
27.8235
27.8195
27.8158
27.8124
27.8093
27.8065
27.8039
27.8015
27.7993
27.7973
27.7955
27.7938
27.7923
27.7909
27.7896
27.7885
27.7874
27.7865
27.7856
27.7848
27.7841
27.7835
27.7829
27.7824
27.7819
27.7815
27.7811
27.7807
27.7804
27.7801
27.7799
27.7797
27.7794
27.7793
27.7791
27.779
27.7788
27.7787
27.7786
27.7785
27.7784
27.7783
27.7783
27.7782
27.7782
27.7781
27.7781
27.778
27.778
27.778
27.778
27.7779
27.7779
27.7779
27.7779
27.7779
27.7779
27.7778
27.7778
27.7778
27.7778
27.7778
27.7778
27.7778
27.7778
27.7778
27.7778
27.7778
27.7778
27.7778
27.7778
27.7778
27.7778
27.7778
27.7778
27.7778
27.7778
27.7778
27.7778
27.7778
27.7778
27.7778
27.7778
27.7778
27.7778
27.7778
27.7778
27.7778
27.7778
27.7778
27.7778
27.7778
27.7778
27.7778
27.7778
27.7778
27.7778
27.7778
27.7778
27.7778
27.7778
27.7778
27.7778
27.7778
27.7778
27.7778
27.7778
27.7778
27.7778
27.7778
27.7778
27.7778
27.7778
27.7778
27.7778
27.7778
27.7778
27.7778
27.7778
27.7778
27.7778
27.7778
27.7778
27.7778
27.7778
27.7778
27.7778
27.7778
27.7778
27.7778
27.7778
27.7778
27.7778
27.7778
27.7778
27.7778
27.7778
27.7778
27.7778
27.7778
27.7778
27.7778
27.7778
27.7778
27.7778
27.7778
27.7778
27.7778
27.7778
27.7778
27.7778
27.7778
27.7778
27.7778
27.7778
27.7778
27.7778
27.7778
27.7778
27.7778
27.7778
27.7778
27.7778
27.7778
27.7778
27.7778
27.7778
27.7778
27.7778
27.7778
27.7778
27.7778
27.7778
27.7778
27.7778
27.7778
27.7778
27.7778
27.7778
27.7778
27.7778
27.7778
27.7778
27.7778
27.7778
27.7778
27.7778
27.7778
27.7778
27.7778
27.7778
27.7778
27.7778
27.7778
27.7778
27.7778
27.7778
27.7778
27.7778
27.7778
27.7778
27.7778
27.7778
27.7778
27.7778
27.7778
27.7778
27.7778
27.7778
27.7778
27.7778
27.7778
27.7778
27.7778
27.7778
27.7778
27.7778
27.7778
27.7778
27.7778
27.7778
27.7778
27.7778
27.7778
27.7778
27.7778
27.7778
27.7778
27.7778
27.7778
27.7778
27.7778
27.7778
27.7778
27.7778
27.7778
27.7778
27.7778
27.7778
27.7778
27.7778
27.7778
27.7778
27.7778
27.7778
27.7778
27.7778
27.7778
27.7778
27.7778
27.7778
27.7778
27.7778
27.7778
27.7778
27.7778
27.7778
27.7778
27.7778
27.7778
27.7778
27.7778
27.7778
27.7778
27.7778
27.7778
27.7778
27.7778
27.7778
27.7778
27.7778
27.7778
27.7778
27.7778
27.7778
27.7778
27.7778
27.7778
27.7778
27.7778
27.7778
27.7778
27.7778
27.7778
27.7778
27.7778
27.7778
27.7778
27.7778
27.7778
27.7778
27.7778
27.7778
27.7778
27.7778
27.7778
27.7778
27.7778
27.7778
27.7778
27.7778
27.7778
27.7778
27.7778
27.7778
27.7778
27.7778
27.7778
27.7778
27.7778
27.7778
27.7778
27.7778
27.7778
27.7778
27.7778
27.7778
27.7778
27.7778
27.7778
27.7778
27.7778
27.7778
27.7778
27.7778
27.7778
27.7778
27.7778
27.7778
27.7778
27.7778
27.7778
27.7778
27.7778
27.7778
27.7778
27.7778
27.7778
27.7778
27.7778
27.7778
27.7778
27.7778
27.7778
27.7778
27.7778
27.7778
27.7778
27.7778
27.7778
27.7778
27.7778
27.7778
27.7778
27.7778
27.7778
27.7778
27.7778
27.7778
27.7778
27.7778
27.7778
27.7778
27.7778
27.7778
27.7778
27.7778
27.7778
27.7778
27.7778
27.7778
27.7778
27.7778
27.7778
27.7778
27.7778
27.7778
27.7778
27.7778
27.7778
27.7778
27.7778
27.7778
27.7778
27.7778
27.7778
27.7778
27.7778
27.7778
27.7778
27.7778
27.7778
27.7778
27.7778
27.7778
27.7778
27.7778
27.7778
27.7778
27.7778
27.7778
27.7778
27.7778
27.7778
27.7778
27.7778
27.7778
27.7778
27.7778
27.7778
27.7778
27.7778
27.7778
27.7778
27.7778
27.7778
27.7778
27.7778
27.7778
27.7778
27.7778
27.7778
27.7778
27.7778
27.7778
27.7778
27.7778
27.7778
27.7778
27.7778
27.7778
27.7778
27.7778
27.7778
27.7778
27.7778
27.7778
27.7779
27.7779
27.7779
27.7779
27.778
27.778
27.7781
27.7782
27.7783
27.7784
27.7785
27.7787
27.7789
27.7791
27.7794
27.7798
27.7802
27.7807
27.7813
27.7821
27.783
27.784
27.7853
27.7867
27.7882
27.79
27.7918
27.7937
27.7955
27.7968
27.7973
27.7962
27.7926
27.785
27.7712
27.7481
27.7111
27.6543
27.5694
27.4461
27.2715
27.0325
26.7112
26.3239
25.7872
25.5112
24.6958
23.3031
38.2032
37.3478
36.7902
36.4259
36.1742
35.9858
35.8292
35.686
35.5468
35.4077
35.2672
35.1253
34.9828
34.8406
34.6995
34.5606
34.4245
34.2919
34.1634
34.0393
33.9197
33.8047
33.6944
33.5886
33.4872
33.3898
33.2962
33.206
33.1189
33.0344
32.952
32.8714
32.7922
32.7137
32.6357
32.5577
32.4794
32.4002
32.32
32.2384
32.1552
32.0702
31.9832
31.894
31.8028
31.7094
31.6138
31.5162
31.4167
31.3155
31.2127
31.1085
31.0032
30.8971
30.7904
30.6835
30.5765
30.4699
30.3638
30.2587
30.1546
30.0519
29.9509
29.8517
29.7545
29.6596
29.5671
29.477
29.3896
29.305
29.2232
29.1442
29.0682
28.9951
28.925
28.8578
28.7935
28.7322
28.6736
28.6179
28.565
28.5147
28.467
28.4218
28.3791
28.3388
28.3007
28.2649
28.2311
28.1993
28.1695
28.1415
28.1152
28.0906
28.0676
28.0461
28.0259
28.0072
27.9897
27.9734
27.9582
27.9441
27.931
27.9188
27.9075
27.897
27.8873
27.8783
27.87
27.8623
27.8552
27.8486
27.8426
27.837
27.8319
27.8271
27.8228
27.8188
27.8152
27.8118
27.8087
27.8059
27.8033
27.8009
27.7988
27.7968
27.795
27.7934
27.7919
27.7905
27.7893
27.7881
27.7871
27.7862
27.7854
27.7846
27.7839
27.7833
27.7827
27.7822
27.7817
27.7813
27.7809
27.7806
27.7803
27.78
27.7798
27.7796
27.7794
27.7792
27.779
27.7789
27.7788
27.7787
27.7785
27.7785
27.7784
27.7783
27.7782
27.7782
27.7781
27.7781
27.7781
27.778
27.778
27.778
27.7779
27.7779
27.7779
27.7779
27.7779
27.7779
27.7779
27.7778
27.7778
27.7778
27.7778
27.7778
27.7778
27.7778
27.7778
27.7778
27.7778
27.7778
27.7778
27.7778
27.7778
27.7778
27.7778
27.7778
27.7778
27.7778
27.7778
27.7778
27.7778
27.7778
27.7778
27.7778
27.7778
27.7778
27.7778
27.7778
27.7778
27.7778
27.7778
27.7778
27.7778
27.7778
27.7778
27.7778
27.7778
27.7778
27.7778
27.7778
27.7778
27.7778
27.7778
27.7778
27.7778
27.7778
27.7778
27.7778
27.7778
27.7778
27.7778
27.7778
27.7778
27.7778
27.7778
27.7778
27.7778
27.7778
27.7778
27.7778
27.7778
27.7778
27.7778
27.7778
27.7778
27.7778
27.7778
27.7778
27.7778
27.7778
27.7778
27.7778
27.7778
27.7778
27.7778
27.7778
27.7778
27.7778
27.7778
27.7778
27.7778
27.7778
27.7778
27.7778
27.7778
27.7778
27.7778
27.7778
27.7778
27.7778
27.7778
27.7778
27.7778
27.7778
27.7778
27.7778
27.7778
27.7778
27.7778
27.7778
27.7778
27.7778
27.7778
27.7778
27.7778
27.7778
27.7778
27.7778
27.7778
27.7778
27.7778
27.7778
27.7778
27.7778
27.7778
27.7778
27.7778
27.7778
27.7778
27.7778
27.7778
27.7778
27.7778
27.7778
27.7778
27.7778
27.7778
27.7778
27.7778
27.7778
27.7778
27.7778
27.7778
27.7778
27.7778
27.7778
27.7778
27.7778
27.7778
27.7778
27.7778
27.7778
27.7778
27.7778
27.7778
27.7778
27.7778
27.7778
27.7778
27.7778
27.7778
27.7778
27.7778
27.7778
27.7778
27.7778
27.7778
27.7778
27.7778
27.7778
27.7778
27.7778
27.7778
27.7778
27.7778
27.7778
27.7778
27.7778
27.7778
27.7778
27.7778
27.7778
27.7778
27.7778
27.7778
27.7778
27.7778
27.7778
27.7778
27.7778
27.7778
27.7778
27.7778
27.7778
27.7778
27.7778
27.7778
27.7778
27.7778
27.7778
27.7778
27.7778
27.7778
27.7778
27.7778
27.7778
27.7778
27.7778
27.7778
27.7778
27.7778
27.7778
27.7778
27.7778
27.7778
27.7778
27.7778
27.7778
27.7778
27.7778
27.7778
27.7778
27.7778
27.7778
27.7778
27.7778
27.7778
27.7778
27.7778
27.7778
27.7778
27.7778
27.7778
27.7778
27.7778
27.7778
27.7778
27.7778
27.7778
27.7778
27.7778
27.7778
27.7778
27.7778
27.7778
27.7778
27.7778
27.7778
27.7778
27.7778
27.7778
27.7778
27.7778
27.7778
27.7778
27.7778
27.7778
27.7778
27.7778
27.7778
27.7778
27.7778
27.7778
27.7778
27.7778
27.7778
27.7778
27.7778
27.7778
27.7778
27.7778
27.7778
27.7778
27.7778
27.7778
27.7778
27.7778
27.7778
27.7778
27.7778
27.7778
27.7778
27.7778
27.7778
27.7778
27.7778
27.7778
27.7778
27.7778
27.7778
27.7778
27.7778
27.7778
27.7778
27.7778
27.7778
27.7778
27.7778
27.7778
27.7778
27.7778
27.7778
27.7778
27.7778
27.7778
27.7778
27.7778
27.7778
27.7778
27.7778
27.7778
27.7778
27.7778
27.7778
27.7778
27.7778
27.7778
27.7778
27.7778
27.7778
27.7778
27.7778
27.7778
27.7778
27.7778
27.7778
27.7778
27.7778
27.7778
27.7778
27.7778
27.7778
27.7778
27.7778
27.7778
27.7778
27.7778
27.7778
27.7778
27.7778
27.7778
27.7778
27.7778
27.7778
27.7778
27.7778
27.7778
27.7778
27.7778
27.7778
27.7778
27.7778
27.7778
27.7778
27.7778
27.7778
27.7778
27.7778
27.7778
27.7778
27.7778
27.7778
27.7778
27.7778
27.7778
27.7778
27.7778
27.7778
27.7778
27.7778
27.7778
27.7778
27.7778
27.7778
27.7778
27.7778
27.7778
27.7778
27.7778
27.7778
27.7778
27.7778
27.7778
27.7778
27.7778
27.7778
27.7778
27.7779
27.7779
27.7779
27.7779
27.778
27.778
27.7781
27.7781
27.7782
27.7783
27.7784
27.7786
27.7788
27.779
27.7793
27.7796
27.78
27.7805
27.7811
27.7819
27.7827
27.7838
27.7851
27.7865
27.7883
27.7903
27.7927
27.7953
27.7982
27.8012
27.8042
27.8069
27.8089
27.8092
27.807
27.8003
27.7867
27.7628
27.7235
27.6624
27.5709
27.4382
27.2534
26.9973
26.7064
26.2087
26.4542
24.0808
31.0325
38.081
37.3611
36.8714
36.5412
36.3135
36.1512
36.0266
35.9209
35.8221
35.7236
35.6223
35.5172
35.4083
35.2963
35.182
35.0663
34.9503
34.8347
34.7202
34.6075
34.4971
34.3892
34.284
34.1816
34.0821
33.9852
33.8909
33.7989
33.7089
33.6205
33.5334
33.4473
33.3616
33.276
33.1902
33.1036
33.016
32.9271
32.8365
32.7439
32.6492
32.5522
32.4528
32.3509
32.2464
32.1395
32.0303
31.9188
31.8052
31.6897
31.5727
31.4543
31.3348
31.2146
31.094
30.9732
30.8527
30.7328
30.6138
30.4959
30.3795
30.2649
30.1523
30.0419
29.9339
29.8286
29.7262
29.6266
29.5301
29.4368
29.3467
29.2599
29.1764
29.0963
29.0194
28.9459
28.8757
28.8087
28.7449
28.6842
28.6266
28.5719
28.5201
28.4711
28.4248
28.381