/*--------------------------------*- C++ -*----------------------------------*\
  =========                 |
  \\      /  F ield         | OpenFOAM: The Open Source CFD Toolbox
   \\    /   O peration     | Website:  https://openfoam.org
    \\  /    A nd           | Version:  9
     \\/     M anipulation  |
\*---------------------------------------------------------------------------*/
FoamFile
{
    format      ascii;
    class       volVectorField;
    location    "0.5";
    object      U;
}
// * * * * * * * * * * * * * * * * * * * * * * * * * * * * * * * * * * * * * //

dimensions      [0 1 -1 0 0 0 0];

internalField   nonuniform List<vector> 
120000
(
(0.848298 0 0.0400435)
(0.760147 0 -0.0115742)
(0.640406 0 -0.00546408)
(0.54499 0 -0.000125563)
(0.461145 0 0.00165792)
(0.39007 0 0.000883897)
(0.330306 0 -0.00062392)
(0.280492 0 -0.00209233)
(0.239152 0 -0.00333395)
(0.204937 0 -0.00435917)
(0.176658 0 -0.00520732)
(0.153293 0 -0.00590931)
(0.133975 0 -0.0064885)
(0.117978 0 -0.00696489)
(0.104701 0 -0.00735663)
(0.0936464 0 -0.00767981)
(0.0844103 0 -0.0079483)
(0.0766626 0 -0.00817363)
(0.0701354 0 -0.00836522)
(0.0646119 0 -0.00853062)
(0.0599168 0 -0.00867575)
(0.0559084 0 -0.0088052)
(0.0524721 0 -0.00892243)
(0.0495151 0 -0.00902996)
(0.0469621 0 -0.00912956)
(0.0447518 0 -0.00922238)
(0.042834 0 -0.00930905)
(0.0411674 0 -0.00938982)
(0.0397176 0 -0.00946461)
(0.0384559 0 -0.0095331)
(0.0373577 0 -0.0095948)
(0.036402 0 -0.00964906)
(0.0355706 0 -0.00969518)
(0.0348471 0 -0.00973237)
(0.034217 0 -0.00975987)
(0.0336673 0 -0.0097769)
(0.0331857 0 -0.00978274)
(0.0327613 0 -0.00977673)
(0.0323837 0 -0.00975827)
(0.0320432 0 -0.00972688)
(0.0317309 0 -0.00968216)
(0.0314386 0 -0.00962385)
(0.0311586 0 -0.00955179)
(0.0308838 0 -0.00946594)
(0.030608 0 -0.00936639)
(0.0303253 0 -0.00925334)
(0.0300308 0 -0.00912712)
(0.0297201 0 -0.00898816)
(0.0293894 0 -0.00883698)
(0.0290358 0 -0.00867421)
(0.0286568 0 -0.00850056)
(0.0282506 0 -0.0083168)
(0.0278161 0 -0.00812377)
(0.0273528 0 -0.00792236)
(0.0268605 0 -0.00771349)
(0.0263397 0 -0.00749811)
(0.0257913 0 -0.00727719)
(0.0252166 0 -0.0070517)
(0.0246172 0 -0.0068226)
(0.0239951 0 -0.00659084)
(0.0233524 0 -0.00635733)
(0.0226915 0 -0.00612299)
(0.0220149 0 -0.00588865)
(0.0213253 0 -0.00565514)
(0.0206253 0 -0.00542322)
(0.0199176 0 -0.0051936)
(0.0192048 0 -0.00496695)
(0.0184897 0 -0.00474386)
(0.0177748 0 -0.00452488)
(0.0170625 0 -0.00431049)
(0.016355 0 -0.00410113)
(0.0156547 0 -0.00389717)
(0.0149635 0 -0.00369893)
(0.0142832 0 -0.00350667)
(0.0136155 0 -0.00332061)
(0.012962 0 -0.00314091)
(0.012324 0 -0.00296769)
(0.0117025 0 -0.00280104)
(0.0110987 0 -0.00264099)
(0.0105134 0 -0.00248755)
(0.00994715 0 -0.00234069)
(0.00940052 0 -0.00220035)
(0.00887389 0 -0.00206645)
(0.0083675 0 -0.00193889)
(0.00788148 0 -0.00181753)
(0.00741582 0 -0.00170224)
(0.00697045 0 -0.00159286)
(0.00654517 0 -0.00148922)
(0.00613974 0 -0.00139114)
(0.00575381 0 -0.00129844)
(0.00538698 0 -0.00121092)
(0.00503882 0 -0.00112838)
(0.00470882 0 -0.00105064)
(0.00439645 0 -0.000977479)
(0.00410116 0 -0.000908709)
(0.00382236 0 -0.000844129)
(0.00355944 0 -0.000783545)
(0.0033118 0 -0.000726764)
(0.00307881 0 -0.000673597)
(0.00285985 0 -0.000623859)
(0.00265429 0 -0.000577371)
(0.00246152 0 -0.00053396)
(0.00228093 0 -0.000493457)
(0.00211192 0 -0.000455698)
(0.0019539 0 -0.000420529)
(0.0018063 0 -0.000387797)
(0.00166856 0 -0.00035736)
(0.00154015 0 -0.000329078)
(0.00142053 0 -0.000302821)
(0.00130921 0 -0.000278462)
(0.00120571 0 -0.000255882)
(0.00110955 0 -0.000234968)
(0.00102029 0 -0.00021561)
(0.000937514 0 -0.000197708)
(0.000860808 0 -0.000181164)
(0.000789788 0 -0.000165887)
(0.000724087 0 -0.00015179)
(0.000663355 0 -0.000138793)
(0.000607263 0 -0.000126817)
(0.000555498 0 -0.000115792)
(0.000507766 0 -0.00010565)
(0.000463786 0 -9.63261e-05)
(0.000423296 0 -8.77615e-05)
(0.00038605 0 -7.99002e-05)
(0.000351814 0 -7.26898e-05)
(0.000320371 0 -6.60814e-05)
(0.000291515 0 -6.00294e-05)
(0.000265055 0 -5.4491e-05)
(0.000240811 0 -4.94267e-05)
(0.000218615 0 -4.47993e-05)
(0.000198311 0 -4.05744e-05)
(0.000179752 0 -3.672e-05)
(0.000162801 0 -3.32062e-05)
(0.000147333 0 -3.00055e-05)
(0.000133228 0 -2.70923e-05)
(0.000120377 0 -2.44428e-05)
(0.000108678 0 -2.20351e-05)
(9.80371e-05 0 -1.98488e-05)
(8.83656e-05 0 -1.78652e-05)
(7.95829e-05 0 -1.60669e-05)
(7.16138e-05 0 -1.4438e-05)
(6.43892e-05 0 -1.29636e-05)
(5.7845e-05 0 -1.16302e-05)
(5.1922e-05 0 -1.04254e-05)
(4.6566e-05 0 -9.33758e-06)
(4.17267e-05 0 -8.35628e-06)
(3.73581e-05 0 -7.47179e-06)
(3.34179e-05 0 -6.67524e-06)
(2.98672e-05 0 -5.95849e-06)
(2.66702e-05 0 -5.31412e-06)
(2.37943e-05 0 -4.7353e-06)
(2.12095e-05 0 -4.21584e-06)
(1.88885e-05 0 -3.75005e-06)
(1.68063e-05 0 -3.33275e-06)
(1.49399e-05 0 -2.95923e-06)
(1.32685e-05 0 -2.6252e-06)
(1.17732e-05 0 -2.32676e-06)
(1.04367e-05 0 -2.06035e-06)
(9.24313e-06 0 -1.82276e-06)
(8.1783e-06 0 -1.61107e-06)
(7.22922e-06 0 -1.42262e-06)
(6.38412e-06 0 -1.25503e-06)
(5.63233e-06 0 -1.10613e-06)
(4.9642e-06 0 -9.73956e-07)
(4.37101e-06 0 -8.56745e-07)
(3.84487e-06 0 -7.52905e-07)
(3.37867e-06 0 -6.61e-07)
(2.96599e-06 0 -5.79739e-07)
(2.60107e-06 0 -5.07959e-07)
(2.27871e-06 0 -4.44619e-07)
(1.99423e-06 0 -3.88782e-07)
(1.74344e-06 0 -3.39609e-07)
(1.52259e-06 0 -2.9635e-07)
(1.32831e-06 0 -2.58332e-07)
(1.15758e-06 0 -2.24956e-07)
(1.0077e-06 0 -1.95685e-07)
(8.76282e-07 0 -1.70041e-07)
(7.61166e-07 0 -1.476e-07)
(6.60444e-07 0 -1.27982e-07)
(5.72413e-07 0 -1.1085e-07)
(4.95559e-07 0 -9.5906e-08)
(4.28539e-07 0 -8.28848e-08)
(3.70161e-07 0 -7.15515e-08)
(3.19369e-07 0 -6.16984e-08)
(2.75227e-07 0 -5.31418e-08)
(2.3691e-07 0 -4.57194e-08)
(2.03687e-07 0 -3.92885e-08)
(1.74916e-07 0 -3.37229e-08)
(1.50029e-07 0 -2.89118e-08)
(1.28528e-07 0 -2.47578e-08)
(1.09975e-07 0 -2.11754e-08)
(9.3985e-08 0 -1.80897e-08)
(8.02207e-08 0 -1.54349e-08)
(6.8387e-08 0 -1.31537e-08)
(5.8226e-08 0 -1.11958e-08)
(4.9512e-08 0 -9.51759e-09)
(4.20486e-08 0 -8.08082e-09)
(3.56644e-08 0 -6.85231e-09)
(3.02103e-08 0 -5.80319e-09)
(2.5557e-08 0 -4.90842e-09)
(2.1592e-08 0 -4.14625e-09)
(1.8218e-08 0 -3.49789e-09)
(1.53507e-08 0 -2.94704e-09)
(1.29173e-08 0 -2.47967e-09)
(1.08549e-08 0 -2.08364e-09)
(9.10938e-09 0 -1.74852e-09)
(7.63399e-09 0 -1.46531e-09)
(6.38869e-09 0 -1.22631e-09)
(5.33906e-09 0 -1.02487e-09)
(4.4556e-09 0 -8.55346e-10)
(3.71304e-09 0 -7.12865e-10)
(3.08982e-09 0 -5.93285e-10)
(2.5675e-09 0 -4.93064e-10)
(2.13038e-09 0 -4.0919e-10)
(1.7651e-09 0 -3.39096e-10)
(1.4603e-09 0 -2.80603e-10)
(1.20634e-09 0 -2.3186e-10)
(9.95059e-10 0 -1.91304e-10)
(8.19547e-10 0 -1.57609e-10)
(6.73969e-10 0 -1.29654e-10)
(5.53407e-10 0 -1.06498e-10)
(4.53713e-10 0 -8.73459e-11)
(3.71403e-10 0 -7.15285e-11)
(3.03551e-10 0 -5.84861e-11)
(2.47707e-10 0 -4.77473e-11)
(2.01817e-10 0 -3.89209e-11)
(1.64168e-10 0 -3.16756e-11)
(1.33329e-10 0 -2.57379e-11)
(1.08108e-10 0 -2.08805e-11)
(8.75169e-11 0 -1.69132e-11)
(7.07316e-11 0 -1.36778e-11)
(5.70721e-11 0 -1.10422e-11)
(4.59745e-11 0 -8.90066e-12)
(3.69733e-11 0 -7.16324e-12)
(2.96848e-11 0 -5.75454e-12)
(2.37933e-11 0 -4.61625e-12)
(1.90387e-11 0 -3.69641e-12)
(1.52078e-11 0 -2.95557e-12)
(1.21275e-11 0 -2.35798e-12)
(9.65537e-12 0 -1.87913e-12)
(7.67284e-12 0 -1.49436e-12)
(6.08708e-12 0 -1.18644e-12)
(4.82055e-12 0 -9.40531e-13)
(3.81033e-12 0 -7.43114e-13)
(3.00679e-12 0 -5.87079e-13)
(2.36952e-12 0 -4.63274e-13)
(1.86344e-12 0 -3.64878e-13)
(1.46241e-12 0 -2.86718e-13)
(1.14528e-12 0 -2.24759e-13)
(8.95795e-13 0 -1.76783e-13)
(6.99288e-13 0 -1.37618e-13)
(5.44844e-13 0 -1.07093e-13)
(4.2354e-13 0 -8.36167e-14)
(3.28782e-13 0 -6.40625e-14)
(2.54772e-13 0 -4.98517e-14)
(1.96962e-13 0 -3.8483e-14)
(1.52284e-13 0 -2.9786e-14)
(1.17893e-13 0 -2.27942e-14)
(9.09495e-14 0 -1.77351e-14)
(6.95195e-14 0 -1.40972e-14)
(5.25802e-14 0 -1.04023e-14)
(4.04157e-14 0 -8.6402e-15)
(3.03544e-14 0 -6.19593e-15)
(2.33058e-14 0 -5.11591e-15)
(1.84741e-14 0 -4.09273e-15)
(1.43245e-14 0 -2.6148e-15)
(1.14255e-14 0 -2.33058e-15)
(8.58336e-15 0 -2.27374e-15)
(6.59384e-15 0 -1.36424e-15)
(4.94538e-15 0 -7.38964e-16)
(3.9222e-15 0 -1.81899e-15)
(2.50111e-15 0 2.27374e-16)
(2.10321e-15 0 -2.84217e-16)
(2.21689e-15 0 1.19371e-15)
(1.7053e-15 0 1.08002e-15)
(1.7053e-15 0 1.13687e-16)
(1.53477e-15 0 -1.13687e-16)
(7.38964e-16 0 2.84217e-16)
(5.68434e-17 0 -5.68434e-17)
(-2.27374e-16 0 0)
(-2.27374e-16 0 5.68434e-17)
(2.84217e-16 0 -5.11591e-16)
(5.11591e-16 0 -5.68434e-17)
(2.27374e-16 0 2.84217e-16)
(6.25278e-16 0 -1.7053e-16)
(5.68434e-17 0 3.41061e-16)
(1.13687e-16 0 1.13687e-16)
(9.09495e-16 0 3.41061e-16)
(1.3074e-15 0 0)
(1.3074e-15 0 7.95808e-16)
(1.47793e-15 0 5.11591e-16)
(1.25056e-15 0 5.68434e-16)
(1.36424e-15 0 -5.11591e-16)
(9.09495e-16 0 -5.68434e-17)
(6.25278e-16 0 -5.68434e-17)
(1.13687e-16 0 -4.54747e-16)
(9.09495e-16 0 -2.27374e-16)
(2.84217e-16 0 -5.68434e-17)
(0 0 6.82121e-16)
(9.09495e-16 0 7.38964e-16)
(9.09495e-16 0 6.82121e-16)
(1.81899e-15 0 3.41061e-16)
(1.76215e-15 0 7.38964e-16)
(9.09495e-16 0 -1.13687e-16)
(9.09495e-16 0 -6.25278e-16)
(-5.68434e-17 0 -5.68434e-17)
(-2.27374e-16 0 5.68434e-17)
(-5.11591e-16 0 1.7053e-16)
(-1.76215e-15 0 5.11591e-16)
(-1.87583e-15 0 4.54747e-16)
(-1.59162e-15 0 -1.13687e-16)
(-1.59162e-15 0 5.11591e-16)
(-1.53477e-15 0 1.7053e-16)
(-7.38964e-16 0 3.97904e-16)
(-1.13687e-16 0 1.7053e-16)
(-3.97904e-16 0 1.7053e-16)
(2.84217e-16 0 2.27374e-16)
(7.95808e-16 0 -2.84217e-16)
(-5.68434e-17 0 -3.41061e-16)
(2.84217e-16 0 5.68434e-17)
(3.41061e-16 0 -4.54747e-16)
(2.27374e-16 0 0)
(5.11591e-16 0 1.13687e-16)
(-1.13687e-16 0 -2.27374e-16)
(-5.11591e-16 0 3.97904e-16)
(-9.09495e-16 0 -1.7053e-16)
(-1.13687e-15 0 2.84217e-16)
(-1.53477e-15 0 5.68434e-17)
(-1.08002e-15 0 -1.7053e-16)
(-1.81899e-15 0 -5.11591e-16)
(-7.95808e-16 0 1.7053e-16)
(-1.64846e-15 0 0)
(-2.16005e-15 0 -9.09495e-16)
(-2.10321e-15 0 -7.95808e-16)
(-2.04636e-15 0 1.13687e-16)
(-2.04636e-15 0 0)
(-1.7053e-15 0 7.38964e-16)
(-2.21689e-15 0 -5.68434e-17)
(-2.84217e-15 0 -5.11591e-16)
(-2.95586e-15 0 -5.68434e-16)
(-2.21689e-15 0 2.27374e-16)
(-1.87583e-15 0 -1.13687e-16)
(-1.42109e-15 0 -5.68434e-16)
(-2.38742e-15 0 -6.25278e-16)
(-3.24007e-15 0 1.13687e-16)
(-2.67164e-15 0 6.82121e-16)
(-1.76215e-15 0 3.97904e-16)
(-1.7053e-15 0 -5.68434e-17)
(-7.95808e-16 0 -9.09495e-16)
(-1.64846e-15 0 -9.66338e-16)
(-1.47793e-15 0 5.68434e-17)
(-7.95808e-16 0 0)
(0 0 -6.82121e-16)
(-7.38964e-16 0 -8.52651e-16)
(5.68434e-17 0 -2.27374e-16)
(9.66338e-16 0 -7.38964e-16)
(8.52651e-16 0 -7.38964e-16)
(2.84217e-16 0 -6.82121e-16)
(1.53477e-15 0 -5.11591e-16)
(1.59162e-15 0 1.13687e-16)
(9.66338e-16 0 1.08002e-15)
(6.25278e-16 0 3.41061e-16)
(2.27374e-16 0 -1.7053e-16)
(3.97904e-16 0 5.68434e-17)
(-8.52651e-16 0 6.82121e-16)
(-1.02318e-15 0 1.7053e-16)
(-5.68434e-17 0 2.84217e-16)
(0 0 -5.68434e-17)
(-5.68434e-17 0 -1.13687e-16)
(-1.13687e-16 0 0)
(-1.02318e-15 0 1.7053e-16)
(-2.04636e-15 0 1.19371e-15)
(-1.53477e-15 0 -2.27374e-16)
(-9.66338e-16 0 -5.68434e-16)
(-9.09495e-16 0 -5.68434e-16)
(-9.09495e-16 0 -2.27374e-16)
(-2.27374e-16 0 1.7053e-16)
(7.95808e-16 0 -3.41061e-16)
(1.47793e-15 0 -9.66338e-16)
(1.36424e-15 0 -6.25278e-16)
(1.87583e-15 0 -2.27374e-16)
(1.76215e-15 0 -1.7053e-16)
(1.59162e-15 0 -4.54747e-16)
(1.59162e-15 0 -7.95808e-16)
(6.25278e-16 0 -1.42109e-15)
(1.13687e-16 0 -1.13687e-16)
(9.66338e-16 0 5.68434e-17)
(1.76215e-15 0 2.27374e-16)
(1.59162e-15 0 -3.41061e-16)
(1.53477e-15 0 -5.68434e-17)
(8.52651e-16 0 -3.97904e-16)
(1.42109e-15 0 -4.54747e-16)
(9.09495e-16 0 -2.84217e-16)
(2.04636e-15 0 6.25278e-16)
(2.04636e-15 0 0)
(1.98952e-15 0 -5.11591e-16)
(1.42109e-15 0 0)
(2.21689e-15 0 1.13687e-16)
(2.67164e-15 0 -9.09495e-16)
(2.04636e-15 0 5.68434e-17)
(2.44427e-15 0 0)
(3.58114e-15 0 8.52651e-16)
(4.20641e-15 0 8.52651e-16)
(3.86535e-15 0 1.42109e-15)
(3.69482e-15 0 1.36424e-15)
(3.80851e-15 0 6.25278e-16)
(2.95586e-15 0 -1.36424e-15)
(2.89901e-15 0 6.82121e-16)
(3.06954e-15 0 1.42109e-15)
(3.06954e-15 0 7.95808e-16)
(3.06954e-15 0 4.54747e-16)
(3.52429e-15 0 -7.95808e-16)
(2.38742e-15 0 3.97904e-16)
(2.50111e-15 0 5.11591e-16)
(2.44427e-15 0 7.95808e-16)
(2.21689e-15 0 3.97904e-16)
(1.42109e-15 0 -8.52651e-16)
(1.02318e-15 0 7.95808e-16)
(-6.25278e-16 0 -8.52651e-16)
(-1.98952e-15 0 5.11591e-16)
(-1.81899e-15 0 5.11591e-16)
(-2.78533e-15 0 1.13687e-16)
(-2.44427e-15 0 1.13687e-16)
(-3.52429e-15 0 5.68434e-17)
(-3.97904e-15 0 1.25056e-15)
(-3.35376e-15 0 5.68434e-16)
(-3.0127e-15 0 1.42109e-15)
(-3.29692e-15 0 5.68434e-17)
(-3.35376e-15 0 2.27374e-16)
(-3.41061e-15 0 1.42109e-15)
(-3.35376e-15 0 -1.13687e-16)
(-3.0127e-15 0 -8.52651e-16)
(-3.06954e-15 0 2.84217e-16)
(-2.72848e-15 0 6.25278e-16)
(-2.38742e-15 0 0)
(-1.47793e-15 0 2.27374e-16)
(-1.87583e-15 0 -1.36424e-15)
(-2.72848e-15 0 1.13687e-16)
(-2.55795e-15 0 5.68434e-16)
(-2.16005e-15 0 9.09495e-16)
(-2.04636e-15 0 1.13687e-16)
(-1.87583e-15 0 -1.36424e-15)
(-2.16005e-15 0 1.13687e-16)
(-2.89901e-15 0 -7.95808e-16)
(-2.89901e-15 0 3.41061e-16)
(-2.21689e-15 0 -1.7053e-16)
(-2.33058e-15 0 -8.52651e-16)
(-1.93268e-15 0 -1.7053e-16)
(-2.44427e-15 0 -1.19371e-15)
(-2.16005e-15 0 -6.25278e-16)
(-2.27374e-15 0 -9.09495e-16)
(-2.72848e-15 0 -9.66338e-16)
(-1.59162e-15 0 0)
(-7.38964e-16 0 -1.36424e-15)
(7.38964e-16 0 7.38964e-16)
(2.33058e-15 0 5.68434e-16)
(4.718e-15 0 1.02318e-15)
(7.21911e-15 0 1.7053e-15)
(9.83391e-15 0 3.35376e-15)
(1.49498e-14 0 3.86535e-15)
(2.02363e-14 0 4.14957e-15)
(2.77964e-14 0 5.28644e-15)
(3.6664e-14 0 6.65068e-15)
(4.78053e-14 0 8.69704e-15)
(6.26414e-14 0 1.14824e-14)
(8.00355e-14 0 1.48361e-14)
(1.02204e-13 0 1.81331e-14)
(1.31536e-13 0 2.47269e-14)
(1.67915e-13 0 3.05818e-14)
(2.13845e-13 0 3.71188e-14)
(2.69438e-13 0 4.81464e-14)
(3.39583e-13 0 6.16183e-14)
(4.28827e-13 0 7.81597e-14)
(5.41604e-13 0 9.79412e-14)
(6.80757e-13 0 1.23919e-13)
(8.54413e-13 0 1.55012e-13)
(1.07059e-12 0 1.93552e-13)
(1.34048e-12 0 2.42323e-13)
(1.67648e-12 0 3.02293e-13)
(2.0936e-12 0 3.77611e-13)
(2.6119e-12 0 4.70607e-13)
(3.25565e-12 0 5.86851e-13)
(4.0539e-12 0 7.28505e-13)
(5.04349e-12 0 9.05857e-13)
(6.2717e-12 0 1.12624e-12)
(7.79272e-12 0 1.39761e-12)
(9.67748e-12 0 1.73327e-12)
(1.20095e-11 0 2.14897e-12)
(1.48959e-11 0 2.66414e-12)
(1.84689e-11 0 3.29862e-12)
(2.28869e-11 0 4.08403e-12)
(2.83474e-11 0 5.05332e-12)
(3.50976e-11 0 6.25073e-12)
(4.34405e-11 0 7.72889e-12)
(5.37473e-11 0 9.55191e-12)
(6.64764e-11 0 1.18017e-11)
(8.21964e-11 0 1.45778e-11)
(1.01607e-10 0 1.80029e-11)
(1.25568e-10 0 2.22239e-11)
(1.55142e-10 0 2.74291e-11)
(1.91637e-10 0 3.38454e-11)
(2.36669e-10 0 4.17533e-11)
(2.92227e-10 0 5.14978e-11)
(3.60763e-10 0 6.35054e-11)
(4.453e-10 0 7.83009e-11)
(5.49563e-10 0 9.65254e-11)
(6.78146e-10 0 1.18975e-10)
(8.36707e-10 0 1.46626e-10)
(1.03222e-09 0 1.80681e-10)
(1.27329e-09 0 2.22617e-10)
(1.57051e-09 0 2.74261e-10)
(1.93694e-09 0 3.37851e-10)
(2.38868e-09 0 4.16149e-10)
(2.94558e-09 0 5.12553e-10)
(3.63209e-09 0 6.31246e-10)
(4.47837e-09 0 7.77375e-10)
(5.52156e-09 0 9.57279e-10)
(6.80749e-09 0 1.17876e-09)
(8.39263e-09 0 1.45143e-09)
(1.03466e-08 0 1.78711e-09)
(1.27552e-08 0 2.20035e-09)
(1.57242e-08 0 2.7091e-09)
(1.93841e-08 0 3.33543e-09)
(2.38956e-08 0 4.10652e-09)
(2.94572e-08 0 5.05585e-09)
(3.63131e-08 0 6.22466e-09)
(4.47648e-08 0 7.66371e-09)
(5.5184e-08 0 9.43557e-09)
(6.80289e-08 0 1.16173e-08)
(8.38646e-08 0 1.43038e-08)
(1.03388e-07 0 1.7612e-08)
(1.27457e-07 0 2.1686e-08)
(1.57133e-07 0 2.67033e-08)
(1.9372e-07 0 3.28829e-08)
(2.38829e-07 0 4.04943e-08)
(2.94445e-07 0 4.98699e-08)
(3.63015e-07 0 6.14196e-08)
(4.47556e-07 0 7.56486e-08)
(5.51785e-07 0 9.31797e-08)
(6.80284e-07 0 1.14781e-07)
(8.38698e-07 0 1.414e-07)
(1.03398e-06 0 1.74206e-07)
(1.27469e-06 0 2.14639e-07)
(1.57139e-06 0 2.64479e-07)
(1.93703e-06 0 3.2592e-07)
(2.3876e-06 0 4.0167e-07)
(2.94272e-06 0 4.95072e-07)
(3.62654e-06 0 6.10254e-07)
(4.46871e-06 0 7.52309e-07)
(5.50562e-06 0 9.27531e-07)
(6.78192e-06 0 1.14369e-06)
(8.35233e-06 0 1.41038e-06)
(1.02839e-05 0 1.73946e-06)
(1.26584e-05 0 2.14558e-06)
(1.55761e-05 0 2.64684e-06)
(1.91588e-05 0 3.26562e-06)
(2.35552e-05 0 4.02957e-06)
(2.89455e-05 0 4.97288e-06)
(3.55485e-05 0 6.13782e-06)
(4.36283e-05 0 7.57666e-06)
(5.35033e-05 0 9.354e-06)
(6.55556e-05 0 1.15498e-05)
(8.02421e-05 0 1.42628e-05)
(9.8106e-05 0 1.76152e-05)
(0.000119789 0 2.17581e-05)
(0.000146045 0 2.68781e-05)
(0.000177751 0 3.32059e-05)
(0.000215913 0 4.10262e-05)
(0.000261675 0 5.06906e-05)
(0.000316311 0 6.26326e-05)
(0.000381205 0 7.73858e-05)
(0.00045781 0 9.56066e-05)
(0.000547574 0 0.000118101)
(0.000651817 0 0.000145853)
(0.000771537 0 0.000180067)
(0.00090712 0 0.000222204)
(0.00105791 0 0.000274028)
(0.0012216 0 0.000337659)
(0.00139333 0 0.000415616)
(0.00156447 0 0.000510852)
(0.00172094 0 0.000626766)
(0.0018409 0 0.000767144)
(0.00189169 0 0.000936007)
(0.00182589 0 0.00113725)
(0.0015763 0 0.00137394)
(0.00105002 0 0.00164682)
(0.000121726 0 0.00195117)
(-0.00137251 0 0.00227009)
(-0.00363779 0 0.00256078)
(-0.006912 0 0.00272947)
(-0.011431 0 0.00259226)
(-0.0173408 0 0.00182809)
(-0.0245206 0 -4.8293e-05)
(-0.0322901 0 -0.00363487)
(-0.0390127 0 -0.00944261)
(-0.0417866 0 -0.0173822)
(-0.0362996 0 -0.0268917)
(-0.0171594 0 -0.0328918)
(0.0116188 0 -0.0458353)
(0.125596 0 -0.0132456)
(0.901784 0 0.11796)
(0.808591 0 0.0848161)
(0.692173 0 0.0738667)
(0.604509 0 0.0572625)
(0.532648 0 0.0451196)
(0.472996 0 0.0347481)
(0.422522 0 0.0256471)
(0.379694 0 0.0176868)
(0.343334 0 0.0108685)
(0.312413 0 0.00511678)
(0.28602 0 0.00030358)
(0.263383 0 -0.00371229)
(0.243862 0 -0.0070626)
(0.226934 0 -0.00986287)
(0.212172 0 -0.0122118)
(0.199228 0 -0.0141925)
(0.187815 0 -0.0158741)
(0.177701 0 -0.0173134)
(0.168693 0 -0.0185567)
(0.160633 0 -0.0196415)
(0.153392 0 -0.0205977)
(0.146859 0 -0.0214488)
(0.140945 0 -0.0222135)
(0.135575 0 -0.0229059)
(0.130685 0 -0.0235367)
(0.126219 0 -0.024114)
(0.122131 0 -0.0246431)
(0.118381 0 -0.0251279)
(0.114933 0 -0.0255704)
(0.111756 0 -0.0259716)
(0.108819 0 -0.0263318)
(0.106098 0 -0.0266502)
(0.103569 0 -0.0269258)
(0.101209 0 -0.0271574)
(0.0989982 0 -0.0273435)
(0.096916 0 -0.0274827)
(0.0949446 0 -0.0275735)
(0.0930665 0 -0.0276149)
(0.0912655 0 -0.027606)
(0.0895265 0 -0.0275462)
(0.0878352 0 -0.0274352)
(0.0861786 0 -0.0272734)
(0.0845448 0 -0.0270613)
(0.0829231 0 -0.0267998)
(0.0813039 0 -0.0264904)
(0.0796791 0 -0.0261348)
(0.0780416 0 -0.0257352)
(0.0763857 0 -0.0252938)
(0.0747069 0 -0.0248135)
(0.0730019 0 -0.024297)
(0.0712685 0 -0.0237476)
(0.0695058 0 -0.0231685)
(0.0677138 0 -0.0225629)
(0.0658934 0 -0.0219344)
(0.0640463 0 -0.0212863)
(0.0621751 0 -0.0206221)
(0.0602831 0 -0.019945)
(0.0583738 0 -0.0192584)
(0.0564515 0 -0.0185654)
(0.0545207 0 -0.0178691)
(0.052586 0 -0.0171722)
(0.0506524 0 -0.0164776)
(0.0487247 0 -0.0157877)
(0.0468079 0 -0.0151048)
(0.0449068 0 -0.0144311)
(0.043026 0 -0.0137684)
(0.04117 0 -0.0131185)
(0.0393429 0 -0.0124829)
(0.0375486 0 -0.011863)
(0.0357908 0 -0.0112598)
(0.0340727 0 -0.0106743)
(0.0323971 0 -0.0101073)
(0.0307666 0 -0.00955939)
(0.0291834 0 -0.00903103)
(0.0276493 0 -0.00852253)
(0.0261657 0 -0.00803407)
(0.0247337 0 -0.00756572)
(0.0233543 0 -0.00711744)
(0.0220279 0 -0.00668908)
(0.0207546 0 -0.00628041)
(0.0195345 0 -0.00589113)
(0.0183674 0 -0.00552086)
(0.0172526 0 -0.00516918)
(0.0161895 0 -0.00483561)
(0.0151772 0 -0.00451963)
(0.0142147 0 -0.0042207)
(0.0133008 0 -0.00393824)
(0.0124343 0 -0.00367167)
(0.0116138 0 -0.00342036)
(0.0108378 0 -0.00318372)
(0.0101048 0 -0.00296113)
(0.00941339 0 -0.00275197)
(0.00876185 0 -0.00255563)
(0.00814861 0 -0.0023715)
(0.00757207 0 -0.002199)
(0.00703062 0 -0.00203754)
(0.00652265 0 -0.00188654)
(0.00604658 0 -0.00174547)
(0.00560087 0 -0.00161378)
(0.00518398 0 -0.00149095)
(0.00479443 0 -0.00137649)
(0.00443077 0 -0.00126991)
(0.00409159 0 -0.00117076)
(0.00377553 0 -0.00107858)
(0.00348127 0 -0.000992962)
(0.00320756 0 -0.000913498)
(0.00295318 0 -0.000839802)
(0.00271697 0 -0.000771509)
(0.0024978 0 -0.000708272)
(0.00229463 0 -0.000649761)
(0.00210645 0 -0.000595664)
(0.00193227 0 -0.000545686)
(0.00177121 0 -0.000499548)
(0.00162238 0 -0.000456987)
(0.00148497 0 -0.000417755)
(0.0013582 0 -0.000381618)
(0.00124135 0 -0.000348358)
(0.00113371 0 -0.000317768)
(0.00103464 0 -0.000289654)
(0.000943537 0 -0.000263837)
(0.000859816 0 -0.000240145)
(0.000782942 0 -0.000218421)
(0.000712409 0 -0.000198516)
(0.000647745 0 -0.000180291)
(0.000588508 0 -0.000163617)
(0.000534284 0 -0.000148374)
(0.000484689 0 -0.000134449)
(0.000439362 0 -0.000121739)
(0.000397968 0 -0.000110146)
(0.000360197 0 -9.95811e-05)
(0.000325758 0 -8.99596e-05)
(0.000294382 0 -8.12044e-05)
(0.000265819 0 -7.32438e-05)
(0.000239839 0 -6.60115e-05)
(0.000216226 0 -5.94461e-05)
(0.000194782 0 -5.34908e-05)
(0.000175324 0 -4.80933e-05)
(0.000157682 0 -4.32053e-05)
(0.000141699 0 -3.87824e-05)
(0.000127232 0 -3.47836e-05)
(0.000114148 0 -3.11713e-05)
(0.000102324 0 -2.79107e-05)
(9.16485e-05 0 -2.49702e-05)
(8.20173e-05 0 -2.23205e-05)
(7.33359e-05 0 -1.9935e-05)
(6.55173e-05 0 -1.77891e-05)
(5.84818e-05 0 -1.58604e-05)
(5.21565e-05 0 -1.41285e-05)
(4.64747e-05 0 -1.25746e-05)
(4.13754e-05 0 -1.11817e-05)
(3.68029e-05 0 -9.93423e-06)
(3.27064e-05 0 -8.81797e-06)
(2.90398e-05 0 -7.82003e-06)
(2.57608e-05 0 -6.9287e-06)
(2.28311e-05 0 -6.1333e-06)
(2.0216e-05 0 -5.42417e-06)
(1.78838e-05 0 -4.79255e-06)
(1.58058e-05 0 -4.23048e-06)
(1.39562e-05 0 -3.73079e-06)
(1.23112e-05 0 -3.28697e-06)
(1.08498e-05 0 -2.89315e-06)
(9.55257e-06 0 -2.54404e-06)
(8.40229e-06 0 -2.23487e-06)
(7.38328e-06 0 -1.96133e-06)
(6.48145e-06 0 -1.71956e-06)
(5.6841e-06 0 -1.50607e-06)
(4.97984e-06 0 -1.31776e-06)
(4.35843e-06 0 -1.15182e-06)
(3.81068e-06 0 -1.00575e-06)
(3.32834e-06 0 -8.77285e-07)
(2.90404e-06 0 -7.64434e-07)
(2.53119e-06 0 -6.654e-07)
(2.20389e-06 0 -5.78582e-07)
(1.91687e-06 0 -5.02555e-07)
(1.66546e-06 0 -4.36048e-07)
(1.44546e-06 0 -3.77932e-07)
(1.25316e-06 0 -3.27203e-07)
(1.08525e-06 0 -2.82972e-07)
(9.38803e-07 0 -2.44448e-07)
(8.11216e-07 0 -2.10932e-07)
(7.00183e-07 0 -1.81806e-07)
(6.03664e-07 0 -1.56523e-07)
(5.19857e-07 0 -1.34602e-07)
(4.47172e-07 0 -1.15618e-07)
(3.84204e-07 0 -9.91948e-08)
(3.29718e-07 0 -8.50049e-08)
(2.82626e-07 0 -7.27587e-08)
(2.41973e-07 0 -6.22025e-08)
(2.0692e-07 0 -5.31139e-08)
(1.76732e-07 0 -4.52983e-08)
(1.50765e-07 0 -3.85856e-08)
(1.28456e-07 0 -3.28271e-08)
(1.09313e-07 0 -2.78935e-08)
(9.29069e-08 0 -2.36716e-08)
(7.88644e-08 0 -2.00635e-08)
(6.68598e-08 0 -1.69837e-08)
(5.66104e-08 0 -1.43583e-08)
(4.78708e-08 0 -1.21231e-08)
(4.0428e-08 0 -1.02225e-08)
(3.4098e-08 0 -8.60864e-09)
(2.87213e-08 0 -7.23997e-09)
(2.41604e-08 0 -6.0808e-09)
(2.02967e-08 0 -5.10037e-09)
(1.70279e-08 0 -4.27224e-09)
(1.42662e-08 0 -3.5737e-09)
(1.19362e-08 0 -2.98528e-09)
(9.97292e-09 0 -2.4903e-09)
(8.32104e-09 0 -2.0745e-09)
(6.93308e-09 0 -1.72569e-09)
(5.7685e-09 0 -1.43351e-09)
(4.79275e-09 0 -1.1891e-09)
(3.97635e-09 0 -9.84951e-10)
(3.29428e-09 0 -8.1467e-10)
(2.72525e-09 0 -6.72847e-10)
(2.25122e-09 0 -5.54899e-10)
(1.85691e-09 0 -4.56952e-10)
(1.52939e-09 0 -3.75734e-10)
(1.25777e-09 0 -3.08489e-10)
(1.03283e-09 0 -2.52897e-10)
(8.46834e-10 0 -2.07008e-10)
(6.93277e-10 0 -1.69187e-10)
(5.66695e-10 0 -1.38063e-10)
(4.62509e-10 0 -1.1249e-10)
(3.76891e-10 0 -9.15115e-11)
(3.06642e-10 0 -7.43276e-11)
(2.49093e-10 0 -6.02758e-11)
(2.02024e-10 0 -4.8802e-11)
(1.63587e-10 0 -3.94494e-11)
(1.32251e-10 0 -3.18382e-11)
(1.06744e-10 0 -2.56538e-11)
(8.60171e-11 0 -2.06367e-11)
(6.9201e-11 0 -1.65727e-11)
(5.55813e-11 0 -1.32878e-11)
(4.45676e-11 0 -1.06371e-11)
(3.56769e-11 0 -8.49951e-12)
(2.85123e-11 0 -6.78136e-12)
(2.27483e-11 0 -5.40103e-12)
(1.81184e-11 0 -4.29446e-12)
(1.44067e-11 0 -3.40776e-12)
(1.14362e-11 0 -2.70069e-12)
(9.06169e-12 0 -2.13629e-12)
(7.16773e-12 0 -1.687e-12)
(5.65944e-12 0 -1.32934e-12)
(4.46119e-12 0 -1.04626e-12)
(3.51014e-12 0 -8.21842e-13)
(2.75747e-12 0 -6.44093e-13)
(2.16176e-12 0 -5.04542e-13)
(1.69166e-12 0 -3.93811e-13)
(1.32206e-12 0 -3.06841e-13)
(1.03046e-12 0 -2.39311e-13)
(8.02459e-13 0 -1.8639e-13)
(6.24027e-13 0 -1.44496e-13)
(4.83624e-13 0 -1.11754e-13)
(3.73916e-13 0 -8.60041e-14)
(2.8939e-13 0 -6.645e-14)
(2.22997e-13 0 -5.09317e-14)
(1.71724e-13 0 -3.90514e-14)
(1.31877e-13 0 -3.00133e-14)
(1.01295e-13 0 -2.30216e-14)
(7.74776e-14 0 -1.79057e-14)
(5.90035e-14 0 -1.33582e-14)
(4.51905e-14 0 -1.1255e-14)
(3.41061e-14 0 -7.7307e-15)
(2.62617e-14 0 -6.76437e-15)
(2.01226e-14 0 -5.28644e-15)
(1.47793e-14 0 -3.80851e-15)
(1.02887e-14 0 -2.89901e-15)
(6.76437e-15 0 -2.44427e-15)
(5.00222e-15 0 -1.7053e-15)
(3.06954e-15 0 -1.7053e-16)
(2.27374e-15 0 -7.38964e-16)
(1.47793e-15 0 -5.68434e-17)
(4.54747e-16 0 -3.97904e-16)
(3.41061e-16 0 5.68434e-16)
(5.11591e-16 0 7.95808e-16)
(3.41061e-16 0 1.7053e-16)
(1.13687e-16 0 4.54747e-16)
(1.13687e-16 0 5.68434e-17)
(6.25278e-16 0 -3.41061e-16)
(5.68434e-17 0 -5.68434e-17)
(-3.41061e-16 0 5.68434e-17)
(5.68434e-17 0 -5.68434e-16)
(5.68434e-17 0 -5.11591e-16)
(1.13687e-16 0 2.84217e-16)
(5.68434e-16 0 3.41061e-16)
(1.13687e-16 0 6.25278e-16)
(5.68434e-17 0 1.13687e-16)
(1.25056e-15 0 2.27374e-16)
(1.59162e-15 0 1.13687e-16)
(9.66338e-16 0 3.97904e-16)
(6.82121e-16 0 6.82121e-16)
(-1.13687e-16 0 6.82121e-16)
(-5.68434e-16 0 1.13687e-16)
(5.68434e-17 0 3.97904e-16)
(-7.38964e-16 0 3.41061e-16)
(-8.52651e-16 0 -8.52651e-16)
(0 0 -3.97904e-16)
(-5.11591e-16 0 3.97904e-16)
(-7.95808e-16 0 4.54747e-16)
(-1.13687e-16 0 8.52651e-16)
(-5.68434e-17 0 7.95808e-16)
(1.36424e-15 0 3.97904e-16)
(1.64846e-15 0 1.64846e-15)
(2.21689e-15 0 1.42109e-15)
(1.64846e-15 0 1.25056e-15)
(4.54747e-16 0 6.82121e-16)
(9.09495e-16 0 5.11591e-16)
(5.11591e-16 0 1.19371e-15)
(4.54747e-16 0 1.13687e-16)
(2.27374e-16 0 2.27374e-16)
(-6.82121e-16 0 -1.13687e-16)
(-1.53477e-15 0 1.13687e-16)
(-1.59162e-15 0 -5.68434e-17)
(-1.13687e-16 0 2.27374e-16)
(1.7053e-16 0 -1.13687e-16)
(1.7053e-16 0 2.84217e-16)
(0 0 5.68434e-17)
(-5.68434e-17 0 -5.11591e-16)
(-5.68434e-17 0 -5.68434e-16)
(5.68434e-16 0 0)
(3.97904e-16 0 -9.09495e-16)
(5.68434e-16 0 -4.54747e-16)
(5.68434e-16 0 1.7053e-16)
(-5.68434e-17 0 -1.13687e-16)
(0 0 4.54747e-16)
(1.7053e-16 0 3.97904e-16)
(1.7053e-16 0 3.97904e-16)
(1.7053e-16 0 6.25278e-16)
(1.13687e-16 0 3.41061e-16)
(2.27374e-16 0 0)
(2.84217e-16 0 5.11591e-16)
(0 0 9.66338e-16)
(5.68434e-17 0 -9.66338e-16)
(-1.13687e-16 0 -3.97904e-16)
(-1.13687e-16 0 1.13687e-16)
(6.82121e-16 0 5.68434e-17)
(1.13687e-15 0 7.95808e-16)
(1.53477e-15 0 -1.13687e-16)
(7.38964e-16 0 -6.82121e-16)
(5.68434e-17 0 1.13687e-16)
(1.7053e-16 0 5.11591e-16)
(7.38964e-16 0 6.25278e-16)
(8.52651e-16 0 1.7053e-16)
(-1.13687e-16 0 1.13687e-16)
(-6.25278e-16 0 0)
(-2.27374e-16 0 2.27374e-16)
(5.68434e-16 0 3.97904e-16)
(6.82121e-16 0 -2.27374e-16)
(6.82121e-16 0 -1.02318e-15)
(3.41061e-16 0 -7.95808e-16)
(5.68434e-16 0 -1.13687e-16)
(1.7053e-15 0 -5.68434e-17)
(1.53477e-15 0 -1.13687e-16)
(1.36424e-15 0 -1.02318e-15)
(1.08002e-15 0 -1.7053e-16)
(1.19371e-15 0 -9.66338e-16)
(1.3074e-15 0 0)
(1.08002e-15 0 -8.52651e-16)
(1.08002e-15 0 2.84217e-16)
(1.3074e-15 0 1.13687e-16)
(1.59162e-15 0 1.13687e-15)
(1.19371e-15 0 5.11591e-16)
(9.66338e-16 0 3.97904e-16)
(1.25056e-15 0 3.97904e-16)
(1.76215e-15 0 1.47793e-15)
(6.82121e-16 0 3.41061e-16)
(1.02318e-15 0 3.41061e-16)
(7.95808e-16 0 1.13687e-16)
(3.97904e-16 0 5.68434e-16)
(6.82121e-16 0 1.13687e-16)
(6.25278e-16 0 1.7053e-16)
(-6.25278e-16 0 6.82121e-16)
(-2.84217e-16 0 2.27374e-16)
(7.95808e-16 0 -1.7053e-16)
(9.09495e-16 0 -1.3074e-15)
(2.84217e-16 0 -4.54747e-16)
(0 0 -6.25278e-16)
(3.41061e-16 0 -7.38964e-16)
(3.97904e-16 0 -1.08002e-15)
(0 0 -1.02318e-15)
(0 0 -1.13687e-16)
(-1.13687e-16 0 -3.41061e-16)
(5.68434e-17 0 0)
(2.27374e-16 0 0)
(-1.13687e-16 0 -3.41061e-16)
(-1.7053e-16 0 5.68434e-17)
(-3.41061e-16 0 3.97904e-16)
(-5.68434e-16 0 3.41061e-16)
(-1.7053e-16 0 -1.13687e-16)
(1.13687e-16 0 7.95808e-16)
(2.27374e-16 0 0)
(6.25278e-16 0 -1.13687e-15)
(3.97904e-16 0 1.7053e-16)
(7.95808e-16 0 9.66338e-16)
(1.02318e-15 0 -1.7053e-16)
(6.82121e-16 0 0)
(-1.7053e-16 0 0)
(7.38964e-16 0 -2.27374e-16)
(1.19371e-15 0 -6.25278e-16)
(1.64846e-15 0 -4.54747e-16)
(7.95808e-16 0 1.13687e-16)
(1.64846e-15 0 7.95808e-16)
(2.44427e-15 0 1.13687e-16)
(2.44427e-15 0 9.66338e-16)
(2.33058e-15 0 1.25056e-15)
(2.04636e-15 0 1.02318e-15)
(1.47793e-15 0 -1.25056e-15)
(1.64846e-15 0 1.7053e-16)
(1.76215e-15 0 2.84217e-16)
(3.06954e-15 0 6.25278e-16)
(2.04636e-15 0 3.97904e-16)
(1.42109e-15 0 -8.52651e-16)
(7.95808e-16 0 5.68434e-16)
(1.02318e-15 0 -2.84217e-16)
(1.81899e-15 0 7.95808e-16)
(2.16005e-15 0 1.13687e-16)
(1.42109e-15 0 -1.7053e-15)
(0 0 -2.27374e-16)
(-1.02318e-15 0 -1.02318e-15)
(-1.87583e-15 0 4.54747e-16)
(-2.67164e-15 0 5.68434e-16)
(-3.41061e-15 0 0)
(-3.35376e-15 0 3.41061e-16)
(-3.12639e-15 0 1.02318e-15)
(-3.12639e-15 0 1.02318e-15)
(-1.7053e-15 0 4.54747e-16)
(-1.64846e-15 0 1.47793e-15)
(-2.44427e-15 0 6.82121e-16)
(-3.06954e-15 0 1.53477e-15)
(-2.89901e-15 0 5.11591e-16)
(-3.46745e-15 0 6.82121e-16)
(-3.58114e-15 0 -1.19371e-15)
(-2.44427e-15 0 -7.38964e-16)
(-1.42109e-15 0 0)
(-6.82121e-16 0 -6.25278e-16)
(-5.11591e-16 0 1.13687e-16)
(-1.76215e-15 0 -1.25056e-15)
(-1.7053e-15 0 1.13687e-16)
(-6.25278e-16 0 1.13687e-16)
(-1.47793e-15 0 -1.7053e-16)
(-1.47793e-15 0 -3.41061e-16)
(-9.66338e-16 0 -1.3074e-15)
(-1.64846e-15 0 -1.7053e-16)
(-2.16005e-15 0 -1.53477e-15)
(-2.04636e-15 0 1.7053e-16)
(-3.24007e-15 0 -1.02318e-15)
(-2.95586e-15 0 -8.52651e-16)
(-2.67164e-15 0 5.68434e-17)
(-2.72848e-15 0 -1.19371e-15)
(-2.95586e-15 0 -1.42109e-15)
(-1.87583e-15 0 -1.36424e-15)
(-1.87583e-15 0 -1.25056e-15)
(-1.3074e-15 0 -5.68434e-17)
(-7.95808e-16 0 -2.33058e-15)
(5.11591e-16 0 -1.59162e-15)
(1.93268e-15 0 1.13687e-16)
(3.35376e-15 0 -4.54747e-16)
(5.91172e-15 0 4.54747e-16)
(8.81073e-15 0 1.47793e-15)
(1.4154e-14 0 3.06954e-15)
(2.0691e-14 0 4.03588e-15)
(2.94449e-14 0 6.0254e-15)
(3.92788e-14 0 7.04858e-15)
(5.20117e-14 0 9.83391e-15)