/*--------------------------------*- C++ -*----------------------------------*\
  =========                 |
  \\      /  F ield         | OpenFOAM: The Open Source CFD Toolbox
   \\    /   O peration     | Website:  https://openfoam.org
    \\  /    A nd           | Version:  9
     \\/     M anipulation  |
\*---------------------------------------------------------------------------*/
FoamFile
{
    format      ascii;
    class       volScalarField;
    location    "0.5";
    object      f_0;
}
// * * * * * * * * * * * * * * * * * * * * * * * * * * * * * * * * * * * * * //

dimensions      [1 -3 0 0 0 0 0];

internalField   nonuniform List<scalar> 
120000
(
456.993
453.199
451.774
450.614
449.792
449.138
448.604
448.162
447.799
447.5
447.258
447.062
446.904
446.778
446.677
446.598
446.536
446.488
446.452
446.425
446.406
446.393
446.385
446.381
446.38
446.381
446.384
446.388
446.393
446.398
446.402
446.406
446.409
446.411
446.412
446.411
446.408
446.403
446.395
446.385
446.373
446.359
446.342
446.322
446.3
446.275
446.248
446.218
446.187
446.153
446.117
446.08
446.041
446
445.958
445.915
445.87
445.826
445.78
445.734
445.688
445.642
445.596
445.55
445.504
445.459
445.415
445.371
445.328
445.286
445.245
445.205
445.167
445.129
445.093
445.058
445.024
444.991
444.96
444.93
444.901
444.874
444.848
444.823
444.799
444.777
444.755
444.735
444.716
444.698
444.681
444.665
444.649
444.635
444.622
444.609
444.597
444.586
444.576
444.566
444.557
444.548
444.541
444.533
444.526
444.52
444.514
444.508
444.503
444.499
444.494
444.49
444.486
444.483
444.48
444.477
444.474
444.471
444.469
444.467
444.465
444.463
444.461
444.46
444.458
444.457
444.456
444.455
444.454
444.453
444.452
444.451
444.451
444.45
444.45
444.449
444.449
444.448
444.448
444.448
444.447
444.447
444.447
444.446
444.446
444.446
444.446
444.446
444.446
444.445
444.445
444.445
444.445
444.445
444.445
444.445
444.445
444.445
444.445
444.445
444.445
444.445
444.445
444.445
444.445
444.445
444.445
444.445
444.445
444.445
444.445
444.445
444.444
444.444
444.444
444.444
444.444
444.444
444.444
444.444
444.444
444.444
444.444
444.444
444.444
444.444
444.444
444.444
444.444
444.444
444.444
444.444
444.444
444.444
444.444
444.444
444.444
444.444
444.444
444.444
444.444
444.444
444.444
444.444
444.444
444.444
444.444
444.444
444.444
444.444
444.444
444.444
444.444
444.444
444.444
444.444
444.444
444.444
444.444
444.444
444.444
444.444
444.444
444.444
444.444
444.444
444.444
444.444
444.444
444.444
444.444
444.444
444.444
444.444
444.444
444.444
444.444
444.444
444.444
444.444
444.444
444.444
444.444
444.444
444.444
444.444
444.444
444.444
444.444
444.444
444.444
444.444
444.444
444.444
444.444
444.444
444.444
444.444
444.444
444.444
444.444
444.444
444.444
444.444
444.444
444.444
444.444
444.444
444.444
444.444
444.444
444.444
444.444
444.444
444.444
444.444
444.444
444.444
444.444
444.444
444.444
444.444
444.444
444.444
444.444
444.444
444.444
444.444
444.444
444.444
444.444
444.444
444.444
444.444
444.444
444.444
444.444
444.444
444.444
444.444
444.444
444.444
444.444
444.444
444.444
444.444
444.444
444.444
444.444
444.444
444.444
444.444
444.444
444.444
444.444
444.444
444.444
444.444
444.444
444.444
444.444
444.444
444.444
444.444
444.444
444.444
444.444
444.444
444.444
444.444
444.444
444.444
444.444
444.444
444.444
444.444
444.444
444.444
444.444
444.444
444.444
444.444
444.444
444.444
444.444
444.444
444.444
444.444
444.444
444.444
444.444
444.444
444.444
444.444
444.444
444.444
444.444
444.444
444.444
444.444
444.444
444.444
444.444
444.444
444.444
444.444
444.444
444.444
444.444
444.444
444.444
444.444
444.444
444.444
444.444
444.444
444.444
444.444
444.444
444.444
444.444
444.444
444.444
444.444
444.444
444.444
444.444
444.444
444.444
444.444
444.444
444.444
444.444
444.444
444.444
444.444
444.444
444.444
444.444
444.444
444.444
444.444
444.444
444.444
444.444
444.444
444.444
444.444
444.444
444.444
444.444
444.444
444.444
444.444
444.444
444.444
444.444
444.444
444.444
444.444
444.444
444.444
444.444
444.444
444.444
444.444
444.444
444.444
444.444
444.444
444.444
444.444
444.444
444.444
444.444
444.444
444.444
444.444
444.444
444.444
444.444
444.444
444.444
444.444
444.444
444.444
444.444
444.444
444.444
444.444
444.444
444.444
444.444
444.444
444.444
444.444
444.444
444.444
444.444
444.444
444.444
444.444
444.444
444.444
444.444
444.444
444.444
444.444
444.444
444.444
444.444
444.444
444.444
444.444
444.444
444.444
444.444
444.444
444.444
444.444
444.444
444.444
444.444
444.444
444.444
444.444
444.444
444.444
444.444
444.444
444.444
444.444
444.444
444.444
444.444
444.444
444.444
444.444
444.444
444.444
444.444
444.444
444.444
444.444
444.444
444.444
444.444
444.444
444.444
444.444
444.444
444.444
444.444
444.444
444.444
444.444
444.444
444.444
444.444
444.444
444.444
444.444
444.444
444.444
444.444
444.444
444.444
444.444
444.444
444.444
444.444
444.444
444.444
444.444
444.444
444.444
444.444
444.444
444.444
444.444
444.444
444.444
444.444
444.444
444.444
444.444
444.444
444.444
444.444
444.444
444.444
444.444
444.444
444.444
444.444
444.444
444.444
444.444
444.443
444.443
444.443
444.442
444.442
444.441
444.441
444.44
444.439
444.438
444.436
444.434
444.432
444.429
444.426
444.422
444.417
444.411
444.404
444.396
444.386
444.375
444.362
444.347
444.33
444.311
444.291
444.27
444.249
444.23
444.218
444.219
444.243
444.308
444.441
444.672
445.033
445.529
446.118
446.645
446.898
447.081
454.249
450.976
449.829
448.983
448.41
447.958
447.595
447.305
447.076
446.897
446.757
446.648
446.564
446.498
446.448
446.41
446.382
446.361
446.347
446.339
446.334
446.333
446.335
446.339
446.344
446.351
446.359
446.366
446.374
446.382
446.389
446.395
446.399
446.403
446.405
446.405
446.402
446.398
446.391
446.382
446.371
446.357
446.34
446.321
446.299
446.274
446.247
446.218
446.187
446.153
446.117
446.08
446.041
446
445.958
445.914
445.87
445.825
445.78
445.734
445.687
445.641
445.595
445.549
445.503
445.458
445.413
445.369
445.326
445.284
445.243
445.203
445.165
445.127
445.091
445.056
445.022
444.989
444.958
444.928
444.899
444.872
444.846
444.821
444.797
444.775
444.753
444.733
444.714
444.696
444.679
444.663
444.648
444.633
444.62
444.607
444.596
444.585
444.574
444.565
444.556
444.547
444.539
444.532
444.525
444.519
444.513
444.508
444.502
444.498
444.493
444.489
444.486
444.482
444.479
444.476
444.473
444.471
444.469
444.466
444.464
444.463
444.461
444.46
444.458
444.457
444.456
444.455
444.454
444.453
444.452
444.451
444.451
444.45
444.45
444.449
444.449
444.448
444.448
444.447
444.447
444.447
444.447
444.446
444.446
444.446
444.446
444.446
444.446
444.445
444.445
444.445
444.445
444.445
444.445
444.445
444.445
444.445
444.445
444.445
444.445
444.445
444.445
444.445
444.445
444.445
444.445
444.445
444.445
444.445
444.445
444.445
444.444
444.444
444.444
444.444
444.444
444.444
444.444
444.444
444.444
444.444
444.444
444.444
444.444
444.444
444.444
444.444
444.444
444.444
444.444
444.444
444.444
444.444
444.444
444.444
444.444
444.444
444.444
444.444
444.444
444.444
444.444
444.444
444.444
444.444
444.444
444.444
444.444
444.444
444.444
444.444
444.444
444.444
444.444
444.444
444.444
444.444
444.444
444.444
444.444
444.444
444.444
444.444
444.444
444.444
444.444
444.444
444.444
444.444
444.444
444.444
444.444
444.444
444.444
444.444
444.444
444.444
444.444
444.444
444.444
444.444
444.444
444.444
444.444
444.444
444.444
444.444
444.444
444.444
444.444
444.444
444.444
444.444
444.444
444.444
444.444
444.444
444.444
444.444
444.444
444.444
444.444
444.444
444.444
444.444
444.444
444.444
444.444
444.444
444.444
444.444
444.444
444.444
444.444
444.444
444.444
444.444
444.444
444.444
444.444
444.444
444.444
444.444
444.444
444.444
444.444
444.444
444.444
444.444
444.444
444.444
444.444
444.444
444.444
444.444
444.444
444.444
444.444
444.444
444.444
444.444
444.444
444.444
444.444
444.444
444.444
444.444
444.444
444.444
444.444
444.444
444.444
444.444
444.444
444.444
444.444
444.444
444.444
444.444
444.444
444.444
444.444
444.444
444.444
444.444
444.444
444.444
444.444
444.444
444.444
444.444
444.444
444.444
444.444
444.444
444.444
444.444
444.444
444.444
444.444
444.444
444.444
444.444
444.444
444.444
444.444
444.444
444.444
444.444
444.444
444.444
444.444
444.444
444.444
444.444
444.444
444.444
444.444
444.444
444.444
444.444
444.444
444.444
444.444
444.444
444.444
444.444
444.444
444.444
444.444
444.444
444.444
444.444
444.444
444.444
444.444
444.444
444.444
444.444
444.444
444.444
444.444
444.444
444.444
444.444
444.444
444.444
444.444
444.444
444.444
444.444
444.444
444.444
444.444
444.444
444.444
444.444
444.444
444.444
444.444
444.444
444.444
444.444
444.444
444.444
444.444
444.444
444.444
444.444
444.444
444.444
444.444
444.444
444.444
444.444
444.444
444.444
444.444
444.444
444.444
444.444
444.444
444.444
444.444
444.444
444.444
444.444
444.444
444.444
444.444
444.444
444.444
444.444
444.444
444.444
444.444
444.444
444.444
444.444
444.444
444.444
444.444
444.444
444.444
444.444
444.444
444.444
444.444
444.444
444.444
444.444
444.444
444.444
444.444
444.444
444.444
444.444
444.444
444.444
444.444
444.444
444.444
444.444
444.444
444.444
444.444
444.444
444.444
444.444
444.444
444.444
444.444
444.444
444.444
444.444
444.444
444.444
444.444
444.444
444.444
444.444
444.444
444.444
444.444
444.444
444.444
444.444
444.444
444.444
444.444
444.444
444.444
444.444
444.444
444.444
444.444
444.444
444.444
444.444
444.444
444.444
444.444
444.444
444.444
444.444
444.444
444.444
444.444
444.444
444.444
444.444
444.444
444.444
444.444
444.444
444.444
444.444
444.444
444.444
444.444
444.444
444.444
444.444
444.444
444.444
444.444
444.444
444.444
444.444
444.444
444.444
444.444
444.444
444.444
444.444
444.444
444.444
444.444
444.444
444.444
444.444
444.444
444.444
444.444
444.444
444.444
444.444
444.444
444.444
444.444
444.444
444.444
444.444
444.444
444.444
444.444
444.444
444.443
444.443
444.443
444.443
444.442
444.442
444.441
444.44
444.439
444.438
444.437
444.435
444.433
444.43
444.427
444.423
444.419
444.413
444.406
444.398
444.389
444.378
444.365
444.35
444.333
444.315
444.295
444.274
444.255
444.24
444.234
444.244
444.282
444.365
444.523
444.793
445.225
445.858
446.736
447.621
449.599
444.743
450.179
449.149
448.654
448.203
447.879
447.618
447.398
447.207
447.042
446.901
446.783
446.685
446.604
446.538
446.484
446.442
446.409
446.383
446.365
446.352
446.343
446.339
446.338
446.339
446.342
446.347
446.353
446.359
446.366
446.372
446.379
446.384
446.389
446.392
446.394
446.394
446.392
446.388
446.382
446.374
446.363
446.35
446.334
446.316
446.295
446.272
446.247
446.219
446.189
446.156
446.122
446.086
446.048
446.008
445.967
445.925
445.882
445.838
445.793
445.748
445.703
445.657
445.611
445.565
445.52
445.475
445.43
445.387
445.344
445.301
445.26
445.22
445.181
445.143
445.106
445.071
445.037
445.004
444.972
444.941
444.912
444.884
444.858
444.832
444.808
444.785
444.763
444.742
444.723
444.704
444.687
444.67
444.655
444.64
444.626
444.613
444.601
444.59
444.579
444.569
444.56
444.551
444.543
444.536
444.528
444.522
444.516
444.51
444.505
444.5
444.495
444.491
444.487
444.484
444.48
444.477
444.475
444.472
444.47
444.467
444.465
444.464
444.462
444.46
444.459
444.458
444.456
444.455
444.454
444.453
444.452
444.452
444.451
444.45
444.45
444.449
444.449
444.448
444.448
444.448
444.447
444.447
444.447
444.446
444.446
444.446
444.446
444.446
444.446
444.445
444.445
444.445
444.445
444.445
444.445
444.445
444.445
444.445
444.445
444.445
444.445
444.445
444.445
444.445
444.445
444.445
444.445
444.445
444.445
444.445
444.445
444.445
444.444
444.444
444.444
444.444
444.444
444.444
444.444
444.444
444.444
444.444
444.444
444.444
444.444
444.444
444.444
444.444
444.444
444.444
444.444
444.444
444.444
444.444
444.444
444.444
444.444
444.444
444.444
444.444
444.444
444.444
444.444
444.444
444.444
444.444
444.444
444.444
444.444
444.444
444.444
444.444
444.444
444.444
444.444
444.444
444.444
444.444
444.444
444.444
444.444
444.444
444.444
444.444
444.444
444.444
444.444
444.444
444.444
444.444
444.444
444.444
444.444
444.444
444.444
444.444
444.444
444.444
444.444
444.444
444.444
444.444
444.444
444.444
444.444
444.444
444.444
444.444
444.444
444.444
444.444
444.444
444.444
444.444
444.444
444.444
444.444
444.444
444.444
444.444
444.444
444.444
444.444
444.444
444.444
444.444
444.444
444.444
444.444
444.444
444.444
444.444
444.444
444.444
444.444
444.444
444.444
444.444
444.444
444.444
444.444
444.444
444.444
444.444
444.444
444.444
444.444
444.444
444.444
444.444
444.444
444.444
444.444
444.444
444.444
444.444
444.444
444.444
444.444
444.444
444.444
444.444
444.444
444.444
444.444
444.444
444.444
444.444
444.444
444.444
444.444
444.444
444.444
444.444
444.444
444.444
444.444
444.444
444.444
444.444
444.444
444.444
444.444
444.444
444.444
444.444
444.444
444.444
444.444
444.444
444.444
444.444
444.444
444.444
444.444
444.444
444.444
444.444
444.444
444.444
444.444
444.444
444.444
444.444
444.444
444.444
444.444
444.444
444.444
444.444
444.444
444.444
444.444
444.444
444.444
444.444
444.444
444.444
444.444
444.444
444.444
444.444
444.444
444.444
444.444
444.444
444.444
444.444
444.444
444.444
444.444
444.444
444.444
444.444
444.444
444.444
444.444
444.444
444.444
444.444
444.444
444.444
444.444
444.444
444.444
444.444
444.444
444.444
444.444
444.444
444.444
444.444
444.444
444.444
444.444
444.444
444.444
444.444
444.444
444.444
444.444
444.444
444.444
444.444
444.444
444.444
444.444
444.444
444.444
444.444
444.444
444.444
444.444
444.444
444.444
444.444
444.444
444.444
444.444
444.444
444.444
444.444
444.444
444.444
444.444
444.444
444.444
444.444
444.444
444.444
444.444
444.444
444.444
444.444
444.444
444.444
444.444
444.444
444.444
444.444
444.444
444.444
444.444
444.444
444.444
444.444
444.444
444.444
444.444
444.444
444.444
444.444
444.444
444.444
444.444
444.444
444.444
444.444
444.444
444.444
444.444
444.444
444.444
444.444
444.444
444.444
444.444
444.444
444.444
444.444
444.444
444.444
444.444
444.444
444.444
444.444
444.444
444.444
444.444
444.444
444.444
444.444
444.444
444.444
444.444
444.444
444.444
444.444
444.444
444.444
444.444
444.444
444.444
444.444
444.444
444.444
444.444
444.444
444.444
444.444
444.444
444.444
444.444
444.444
444.444
444.444
444.444
444.444
444.444
444.444
444.444
444.444
444.444
444.444
444.444
444.444
444.444
444.444
444.444
444.444
444.444
444.444
444.444
444.444
444.444
444.444
444.444
444.444
444.444
444.444
444.444
444.444
444.444
444.444
444.444
444.444
444.444
444.444
444.444
444.444
444.444
444.444
444.444
444.444
444.444
444.444
444.444
444.444
444.444
444.444
444.444
444.444
444.444
444.444
444.444
444.444
444.444
444.444
444.443
444.443
444.443
444.442
444.442
444.441
444.441
444.44
444.439
444.438
444.436
444.434
444.432
444.429
444.426
444.422
444.417
444.411
444.404
444.395
444.385
444.374
444.36
444.345
444.328
444.31
444.291
444.272
444.256
444.246
444.247
444.268
444.321
444.424
444.606
444.906
445.376
446.074
447.091
448.154
451.246
442.18
448.597
448.059
447.819
447.517
447.287
447.107
446.965
446.845
446.741
446.65
446.572
446.506
446.451
446.407
446.37
446.342
446.32
446.304
446.293
446.286
446.283
446.283
446.285
446.289
446.295
446.302
446.31
446.319
446.327
446.336
446.343
446.35
446.356
446.361
446.365
446.366
446.366
446.364
446.359
446.353
446.344
446.332
446.318
446.302
446.283
446.262
446.238
446.212
446.183
446.153
446.12
446.085
446.049
446.011
445.971
445.93
445.888
445.845
445.801
445.757
445.712
445.667
445.622
445.577
445.532
445.487
445.443
445.399
445.356
445.314
445.273
445.232
445.193
445.155
445.118
445.082
445.047
445.014
444.982
444.951
444.922
444.893
444.866
444.84
444.816
444.793
444.77
444.749
444.729
444.71
444.693
444.676
444.66
444.645
444.631
444.618
444.605
444.594
444.583
444.572
444.563
444.554
444.546
444.538
444.531
444.524
444.518
444.512
444.507
444.502
444.497
444.493
444.489
444.485
444.482
444.478
444.475
444.473
444.47
444.468
444.466
444.464
444.462
444.461
444.459
444.458
444.457
444.456
444.454
444.454
444.453
444.452
444.451
444.451
444.45
444.449
444.449
444.448
444.448
444.448
444.447
444.447
444.447
444.447
444.446
444.446
444.446
444.446
444.446
444.446
444.445
444.445
444.445
444.445
444.445
444.445
444.445
444.445
444.445
444.445
444.445
444.445
444.445
444.445
444.445
444.445
444.445
444.445
444.445
444.445
444.445
444.445
444.445
444.444
444.444
444.444
444.444
444.444
444.444
444.444
444.444
444.444
444.444
444.444
444.444
444.444
444.444
444.444
444.444
444.444
444.444
444.444
444.444
444.444
444.444
444.444
444.444
444.444
444.444
444.444
444.444
444.444
444.444
444.444
444.444
444.444
444.444
444.444
444.444
444.444
444.444
444.444
444.444
444.444
444.444
444.444
444.444
444.444
444.444
444.444
444.444
444.444
444.444
444.444
444.444
444.444
444.444
444.444
444.444
444.444
444.444
444.444
444.444
444.444
444.444
444.444
444.444
444.444
444.444
444.444
444.444
444.444
444.444
444.444
444.444
444.444
444.444
444.444
444.444
444.444
444.444
444.444
444.444
444.444
444.444
444.444
444.444
444.444
444.444
444.444
444.444
444.444
444.444
444.444
444.444
444.444
444.444
444.444
444.444
444.444
444.444
444.444
444.444
444.444
444.444
444.444
444.444
444.444
444.444
444.444
444.444
444.444
444.444
444.444
444.444
444.444
444.444
444.444
444.444
444.444
444.444
444.444
444.444
444.444
444.444
444.444
444.444
444.444
444.444
444.444
444.444
444.444
444.444
444.444
444.444
444.444
444.444
444.444
444.444
444.444
444.444
444.444
444.444
444.444
444.444
444.444
444.444
444.444
444.444
444.444
444.444
444.444
444.444
444.444
444.444
444.444
444.444
444.444
444.444
444.444
444.444
444.444
444.444
444.444
444.444
444.444
444.444
444.444
444.444
444.444
444.444
444.444
444.444
444.444
444.444
444.444
444.444
444.444
444.444
444.444
444.444
444.444
444.444
444.444
444.444
444.444
444.444
444.444
444.444
444.444
444.444
444.444
444.444
444.444
444.444
444.444
444.444
444.444
444.444
444.444
444.444
444.444
444.444
444.444
444.444
444.444
444.444
444.444
444.444
444.444
444.444
444.444
444.444
444.444
444.444
444.444
444.444
444.444
444.444
444.444
444.444
444.444
444.444
444.444
444.444
444.444
444.444
444.444
444.444
444.444
444.444
444.444
444.444
444.444
444.444
444.444
444.444
444.444
444.444
444.444
444.444
444.444
444.444
444.444
444.444
444.444
444.444
444.444
444.444
444.444
444.444
444.444
444.444
444.444
444.444
444.444
444.444
444.444
444.444
444.444
444.444
444.444
444.444
444.444
444.444
444.444
444.444
444.444
444.444
444.444
444.444
444.444
444.444
444.444
444.444
444.444
444.444
444.444
444.444
444.444
444.444
444.444
444.444
444.444
444.444
444.444
444.444
444.444
444.444
444.444
444.444
444.444
444.444
444.444
444.444
444.444
444.444
444.444
444.444
444.444
444.444
444.444
444.444
444.444
444.444
444.444
444.444
444.444
444.444
444.444
444.444
444.444
444.444
444.444
444.444
444.444
444.444
444.444
444.444
444.444
444.444
444.444
444.444
444.444
444.444
444.444
444.444
444.444
444.444
444.444
444.444
444.444
444.444
444.444
444.444
444.444
444.444
444.444
444.444
444.444
444.444
444.444
444.444
444.444
444.444
444.444
444.444
444.444
444.444
444.444
444.444
444.444
444.444
444.444
444.444
444.444
444.444
444.444
444.444
444.444
444.444
444.444
444.444
444.444
444.444
444.444
444.444
444.444
444.444
444.444
444.444
444.444
444.444
444.444
444.444
444.444
444.444
444.444
444.444
444.444
444.444
444.444
444.444
444.444
444.444
444.444
444.444
444.444
444.443
444.443
444.443
444.442
444.442
444.441
444.441
444.44
444.439
444.437
444.436
444.434
444.431
444.428
444.425
444.42
444.415
444.409
444.401
444.392
444.382
444.369
444.355
444.338
444.32
444.299
444.278
444.256
444.236
444.223
444.22
444.237
444.286
444.385
444.561
444.853
445.315
446.02
447.085
448.294
451.906
440.457
447.596
447.281
447.185
446.999
446.841
446.71
446.609
446.529
446.464
446.408
446.36
446.319
446.285
446.258
446.237
446.22
446.209
446.202
446.198
446.198
446.2
446.205
446.212
446.22
446.229
446.239
446.25
446.261
446.272
446.283
446.293
446.302
446.31
446.317
446.323
446.327
446.329
446.329
446.327
446.322
446.316
446.307
446.295
446.281
446.264
446.245
446.224
446.2
446.174
446.145
446.114
446.082
446.047
446.011
445.973
445.934
445.893
445.851
445.809
445.765
445.722
445.677
445.633
445.588
445.543
445.499
445.455
445.412
445.369
445.327
445.285
445.245
445.206
445.167
445.13
445.094
445.059
445.025
444.993
444.962
444.932
444.903
444.875
444.849
444.824
444.801
444.778
444.757
444.736
444.717
444.699
444.682
444.665
444.65
444.636
444.622
444.609
444.598
444.586
444.576
444.566
444.557
444.549
444.541
444.533
444.526
444.52
444.514
444.508
444.503
444.498
444.494
444.49
444.486
444.483
444.479
444.476
444.474
444.471
444.469
444.467
444.465
444.463
444.461
444.46
444.458
444.457
444.456
444.455
444.454
444.453
444.452
444.451
444.451
444.45
444.45
444.449
444.449
444.448
444.448
444.447
444.447
444.447
444.447
444.446
444.446
444.446
444.446
444.446
444.446
444.445
444.445
444.445
444.445
444.445
444.445
444.445
444.445
444.445
444.445
444.445
444.445
444.445
444.445
444.445
444.445
444.445
444.445
444.445
444.445
444.445
444.445
444.445
444.444
444.444
444.444
444.444
444.444
444.444
444.444
444.444
444.444
444.444
444.444
444.444
444.444
444.444
444.444
444.444
444.444
444.444
444.444
444.444
444.444
444.444
444.444
444.444
444.444
444.444
444.444
444.444
444.444
444.444
444.444
444.444
444.444
444.444
444.444
444.444
444.444
444.444
444.444
444.444
444.444
444.444
444.444
444.444
444.444
444.444
444.444
444.444
444.444
444.444
444.444
444.444
444.444
444.444
444.444
444.444
444.444
444.444
444.444
444.444
444.444
444.444
444.444
444.444
444.444
444.444
444.444
444.444
444.444
444.444
444.444
444.444
444.444
444.444
444.444
444.444
444.444
444.444
444.444
444.444
444.444
444.444
444.444
444.444
444.444
444.444
444.444
444.444
444.444
444.444
444.444
444.444
444.444
444.444
444.444
444.444
444.444
444.444
444.444
444.444
444.444
444.444
444.444
444.444
444.444
444.444
444.444
444.444
444.444
444.444
444.444
444.444
444.444
444.444
444.444
444.444
444.444
444.444
444.444
444.444
444.444
444.444
444.444
444.444
444.444
444.444
444.444
444.444
444.444
444.444
444.444
444.444
444.444
444.444
444.444
444.444
444.444
444.444
444.444
444.444
444.444
444.444
444.444
444.444
444.444
444.444
444.444
444.444
444.444
444.444
444.444
444.444
444.444
444.444
444.444
444.444
444.444
444.444
444.444
444.444
444.444
444.444
444.444
444.444
444.444
444.444
444.444
444.444
444.444
444.444
444.444
444.444
444.444
444.444
444.444
444.444
444.444
444.444
444.444
444.444
444.444
444.444
444.444
444.444
444.444
444.444
444.444
444.444
444.444
444.444
444.444
444.444
444.444
444.444
444.444
444.444
444.444
444.444
444.444
444.444
444.444
444.444
444.444
444.444
444.444
444.444
444.444
444.444
444.444
444.444
444.444
444.444
444.444
444.444
444.444
444.444
444.444
444.444
444.444
444.444
444.444
444.444
444.444
444.444
444.444
444.444
444.444
444.444
444.444
444.444
444.444
444.444
444.444
444.444
444.444
444.444
444.444
444.444
444.444
444.444
444.444
444.444
444.444
444.444
444.444
444.444
444.444
444.444
444.444
444.444
444.444
444.444
444.444
444.444
444.444
444.444
444.444
444.444
444.444
444.444
444.444
444.444
444.444
444.444
444.444
444.444
444.444
444.444
444.444
444.444
444.444
444.444
444.444
444.444
444.444
444.444
444.444
444.444
444.444
444.444
444.444
444.444
444.444
444.444
444.444
444.444
444.444
444.444
444.444
444.444
444.444
444.444
444.444
444.444
444.444
444.444
444.444
444.444
444.444
444.444
444.444
444.444
444.444
444.444
444.444
444.444
444.444
444.444
444.444
444.444
444.444
444.444
444.444
444.444
444.444
444.444
444.444
444.444
444.444
444.444
444.444
444.444
444.444
444.444
444.444
444.444
444.444
444.444
444.444
444.444
444.444
444.444
444.444
444.444
444.444
444.444
444.444
444.444
444.444
444.444
444.444
444.444
444.444
444.444
444.444
444.444
444.444
444.444
444.444
444.444
444.444
444.444
444.444
444.444
444.444
444.444
444.444
444.444
444.444
444.444
444.444
444.444
444.444
444.444
444.444
444.444
444.444
444.444
444.444
444.444
444.444
444.444
444.444
444.444
444.444
444.444
444.444
444.444
444.444
444.444
444.444
444.444
444.444
444.444
444.444
444.443
444.443
444.443
444.442
444.442
444.441
444.44
444.44
444.438
444.437
444.435
444.433
444.431
444.428
444.424
444.419
444.414
444.407
444.399
444.389
444.377
444.364
444.347
444.329
444.307
444.283
444.256
444.227
444.198
444.172
444.152
444.146
444.164
444.22
444.335
444.54
444.882
445.438
446.305
447.496
450.429
441.241
446.958
446.736
446.704
446.585
446.476
446.376
446.297
446.238
446.194
446.16
446.133
446.112
446.096
446.084
446.076
446.072
446.071
446.074
446.078
446.085
446.094
446.105
446.117
446.13
446.144
446.158
446.173
446.187
446.202
446.215
446.229
446.241
446.252
446.262
446.271
446.277
446.282
446.285
446.286
446.284
446.281
446.274
446.266
446.254
446.241
446.224
446.205
446.184
446.161
446.134
446.106
446.076
446.043
446.009
445.973
445.936
445.897
445.856
445.815
445.773
445.73
445.687
445.643
445.599
445.555
445.511
445.467
445.424
445.381
445.339
445.298
445.258
445.218
445.179
445.142
445.106
445.07
445.036
445.003
444.972
444.942
444.912
444.885
444.858
444.833
444.808
444.785
444.764
444.743
444.723
444.705
444.687
444.671
444.655
444.64
444.627
444.614
444.601
444.59
444.579
444.569
444.56
444.551
444.543
444.536
444.528
444.522
444.516
444.51
444.505
444.5
444.495
444.491
444.487
444.484
444.48
444.477
444.475
444.472
444.47
444.467
444.465
444.463
444.462
444.46
444.459
444.457
444.456
444.455
444.454
444.453
444.452
444.452
444.451
444.45
444.45
444.449
444.449
444.448
444.448
444.448
444.447
444.447
444.447
444.446
444.446
444.446
444.446
444.446
444.446
444.445
444.445
444.445
444.445
444.445
444.445
444.445
444.445
444.445
444.445
444.445
444.445
444.445
444.445
444.445
444.445
444.445
444.445
444.445
444.445
444.445
444.445
444.445
444.444
444.444
444.444
444.444
444.444
444.444
444.444
444.444
444.444
444.444
444.444
444.444
444.444
444.444
444.444
444.444
444.444
444.444
444.444
444.444
444.444
444.444
444.444
444.444
444.444
444.444
444.444
444.444
444.444
444.444
444.444
444.444
444.444
444.444
444.444
444.444
444.444
444.444
444.444
444.444
444.444
444.444
444.444
444.444
444.444
444.444
444.444
444.444
444.444
444.444
444.444
444.444
444.444
444.444
444.444
444.444
444.444
444.444
444.444
444.444
444.444
444.444
444.444
444.444
444.444
444.444
444.444
444.444
444.444
444.444
444.444
444.444
444.444
444.444
444.444
444.444
444.444
444.444
444.444
444.444
444.444
444.444
444.444
444.444
444.444
444.444
444.444
444.444
444.444
444.444
444.444
444.444
444.444
444.444
444.444
444.444
444.444
444.444
444.444
444.444
444.444
444.444
444.444
444.444
444.444
444.444
444.444
444.444
444.444
444.444
444.444
444.444
444.444
444.444
444.444
444.444
444.444
444.444
444.444
444.444
444.444
444.444
444.444
444.444
444.444
444.444
444.444
444.444
444.444
444.444
444.444
444.444
444.444
444.444
444.444
444.444
444.444
444.444
444.444
444.444
444.444
444.444
444.444
444.444
444.444
444.444
444.444
444.444
444.444
444.444
444.444
444.444
444.444
444.444
444.444
444.444
444.444
444.444
444.444
444.444
444.444
444.444
444.444
444.444
444.444
444.444
444.444
444.444
444.444
444.444
444.444
444.444
444.444
444.444
444.444
444.444
444.444
444.444
444.444
444.444
444.444
444.444
444.444
444.444
444.444
444.444
444.444
444.444
444.444
444.444
444.444
444.444
444.444
444.444
444.444
444.444
444.444
444.444
444.444
444.444
444.444
444.444
444.444
444.444
444.444
444.444
444.444
444.444
444.444
444.444
444.444
444.444
444.444
444.444
444.444
444.444
444.444
444.444
444.444
444.444
444.444
444.444
444.444
444.444
444.444
444.444
444.444
444.444
444.444
444.444
444.444
444.444
444.444
444.444
444.444
444.444
444.444
444.444
444.444
444.444
444.444
444.444
444.444
444.444
444.444
444.444
444.444
444.444
444.444
444.444
444.444
444.444
444.444
444.444
444.444
444.444
444.444
444.444
444.444
444.444
444.444
444.444
444.444
444.444
444.444
444.444
444.444
444.444
444.444
444.444
444.444
444.444
444.444
444.444
444.444
444.444
444.444
444.444
444.444
444.444
444.444
444.444
444.444
444.444
444.444
444.444
444.444
444.444
444.444
444.444
444.444
444.444
444.444
444.444
444.444
444.444
444.444
444.444
444.444
444.444
444.444
444.444
444.444
444.444
444.444
444.444
444.444
444.444
444.444
444.444
444.444
444.444
444.444
444.444
444.444
444.444
444.444
444.444
444.444
444.444
444.444
444.444
444.444
444.444
444.444
444.444
444.444
444.444
444.444
444.444
444.444
444.444
444.444
444.444
444.444
444.444
444.444
444.444
444.444
444.444
444.444
444.444
444.444
444.444
444.444
444.444
444.444
444.444
444.444
444.444
444.444
444.444
444.444
444.444
444.444
444.444
444.444
444.444
444.444
444.444
444.444
444.444
444.444
444.444
444.444
444.444
444.444
444.444
444.444
444.444
444.444
444.444
444.444
444.444
444.444
444.444
444.444
444.444
444.444
444.444
444.444
444.444
444.444
444.444
444.443
444.443
444.443
444.443
444.442
444.442
444.441
444.44
444.439
444.438
444.437
444.435
444.433
444.43
444.427
444.423
444.418
444.412
444.405
444.396
444.385
444.372
444.357
444.338
444.317
444.291
444.261
444.226
444.186
444.143
444.095
444.045
443.997
443.955
443.926
443.92
443.955
444.052
444.279
444.64
445.562
446.319
444.839
446.49
446.334
446.337
446.259
446.182
446.106
446.041
445.992
445.958
445.935
445.92
445.912
445.907
445.907
445.91
445.915
445.923
445.934
445.946
445.96
445.975
445.992
446.009
446.027
446.046
446.065
446.083
446.102
446.12
446.138
446.155
446.17
446.185
446.198
446.21
446.22
446.228
446.235
446.239
446.241
446.24
446.237
446.232
446.224
446.213
446.2
446.184
446.166
446.145
446.122
446.096
446.068
446.038
446.006
445.972
445.937
445.899
445.861
445.821
445.78
445.738
445.696
445.653
445.61
445.566
445.523
445.48
445.437
445.394
445.352
445.311
445.27
445.23
445.192
445.154
445.117
445.082
445.047
445.014
444.982
444.951
444.922
444.894