/*--------------------------------*- C++ -*----------------------------------*\
  =========                 |
  \\      /  F ield         | OpenFOAM: The Open Source CFD Toolbox
   \\    /   O peration     | Website:  https://openfoam.org
    \\  /    A nd           | Version:  9
     \\/     M anipulation  |
\*---------------------------------------------------------------------------*/
FoamFile
{
    format      ascii;
    class       volScalarField;
    location    "0.5";
    object      f_1;
}
// * * * * * * * * * * * * * * * * * * * * * * * * * * * * * * * * * * * * * //

dimensions      [1 -3 0 0 0 0 0];

internalField   nonuniform List<scalar> 
120000
(
159.573
153.281
146.954
141.255
136.363
132.269
128.882
126.098
123.818
121.954
120.431
119.187
118.171
117.34
116.659
116.099
115.639
115.259
114.944
114.682
114.463
114.28
114.127
113.997
113.888
113.795
113.716
113.649
113.592
113.542
113.5
113.464
113.432
113.404
113.38
113.358
113.338
113.319
113.301
113.284
113.267
113.249
113.231
113.212
113.191
113.17
113.146
113.121
113.094
113.066
113.035
113.002
112.968
112.931
112.893
112.853
112.812
112.769
112.725
112.679
112.633
112.585
112.537
112.489
112.44
112.392
112.343
112.294
112.246
112.198
112.151
112.104
112.058
112.014
111.97
111.927
111.886
111.846
111.807
111.769
111.733
111.698
111.664
111.632
111.601
111.572
111.544
111.517
111.491
111.467
111.444
111.422
111.402
111.382
111.364
111.347
111.33
111.315
111.3
111.287
111.274
111.262
111.251
111.241
111.231
111.222
111.213
111.205
111.198
111.191
111.185
111.179
111.173
111.168
111.164
111.159
111.155
111.152
111.148
111.145
111.142
111.139
111.137
111.135
111.133
111.131
111.129
111.127
111.126
111.124
111.123
111.122
111.121
111.12
111.119
111.118
111.118
111.117
111.116
111.116
111.115
111.115
111.115
111.114
111.114
111.114
111.113
111.113
111.113
111.113
111.113
111.112
111.112
111.112
111.112
111.112
111.112
111.112
111.112
111.112
111.112
111.111
111.111
111.111
111.111
111.111
111.111
111.111
111.111
111.111
111.111
111.111
111.111
111.111
111.111
111.111
111.111
111.111
111.111
111.111
111.111
111.111
111.111
111.111
111.111
111.111
111.111
111.111
111.111
111.111
111.111
111.111
111.111
111.111
111.111
111.111
111.111
111.111
111.111
111.111
111.111
111.111
111.111
111.111
111.111
111.111
111.111
111.111
111.111
111.111
111.111
111.111
111.111
111.111
111.111
111.111
111.111
111.111
111.111
111.111
111.111
111.111
111.111
111.111
111.111
111.111
111.111
111.111
111.111
111.111
111.111
111.111
111.111
111.111
111.111
111.111
111.111
111.111
111.111
111.111
111.111
111.111
111.111
111.111
111.111
111.111
111.111
111.111
111.111
111.111
111.111
111.111
111.111
111.111
111.111
111.111
111.111
111.111
111.111
111.111
111.111
111.111
111.111
111.111
111.111
111.111
111.111
111.111
111.111
111.111
111.111
111.111
111.111
111.111
111.111
111.111
111.111
111.111
111.111
111.111
111.111
111.111
111.111
111.111
111.111
111.111
111.111
111.111
111.111
111.111
111.111
111.111
111.111
111.111
111.111
111.111
111.111
111.111
111.111
111.111
111.111
111.111
111.111
111.111
111.111
111.111
111.111
111.111
111.111
111.111
111.111
111.111
111.111
111.111
111.111
111.111
111.111
111.111
111.111
111.111
111.111
111.111
111.111
111.111
111.111
111.111
111.111
111.111
111.111
111.111
111.111
111.111
111.111
111.111
111.111
111.111
111.111
111.111
111.111
111.111
111.111
111.111
111.111
111.111
111.111
111.111
111.111
111.111
111.111
111.111
111.111
111.111
111.111
111.111
111.111
111.111
111.111
111.111
111.111
111.111
111.111
111.111
111.111
111.111
111.111
111.111
111.111
111.111
111.111
111.111
111.111
111.111
111.111
111.111
111.111
111.111
111.111
111.111
111.111
111.111
111.111
111.111
111.111
111.111
111.111
111.111
111.111
111.111
111.111
111.111
111.111
111.111
111.111
111.111
111.111
111.111
111.111
111.111
111.111
111.111
111.111
111.111
111.111
111.111
111.111
111.111
111.111
111.111
111.111
111.111
111.111
111.111
111.111
111.111
111.111
111.111
111.111
111.111
111.111
111.111
111.111
111.111
111.111
111.111
111.111
111.111
111.111
111.111
111.111
111.111
111.111
111.111
111.111
111.111
111.111
111.111
111.111
111.111
111.111
111.111
111.111
111.111
111.111
111.111
111.111
111.111
111.111
111.111
111.111
111.111
111.111
111.111
111.111
111.111
111.111
111.111
111.111
111.111
111.111
111.111
111.111
111.111
111.111
111.111
111.111
111.111
111.111
111.111
111.111
111.111
111.111
111.111
111.111
111.111
111.111
111.111
111.111
111.111
111.111
111.111
111.111
111.111
111.111
111.111
111.111
111.111
111.111
111.111
111.111
111.111
111.111
111.111
111.111
111.111
111.111
111.111
111.111
111.111
111.111
111.111
111.111
111.111
111.111
111.111
111.111
111.111
111.111
111.111
111.111
111.111
111.111
111.111
111.111
111.111
111.111
111.111
111.111
111.111
111.111
111.111
111.111
111.111
111.111
111.111
111.111
111.111
111.111
111.111
111.111
111.111
111.111
111.111
111.111
111.111
111.111
111.111
111.111
111.111
111.111
111.111
111.111
111.111
111.111
111.111
111.111
111.111
111.111
111.111
111.111
111.111
111.111
111.111
111.111
111.111
111.111
111.111
111.111
111.111
111.112
111.112
111.112
111.112
111.112
111.112
111.112
111.113
111.113
111.114
111.114
111.115
111.115
111.116
111.117
111.118
111.119
111.12
111.121
111.122
111.123
111.123
111.122
111.12
111.115
111.108
111.096
111.077
111.05
111.011
110.956
110.882
110.784
110.665
110.529
110.396
110.306
110.321
110.513
111.104
111.147
117.541
157.928
152.845
147.205
142.03
137.671
134.112
131.215
128.843
126.889
125.27
123.922
122.793
121.842
121.035
120.347
119.756
119.245
118.801
118.413
118.072
117.77
117.502
117.263
117.049
116.857
116.684
116.527
116.385
116.255
116.136
116.027
115.927
115.834
115.747
115.665
115.588
115.514
115.444
115.375
115.308
115.242
115.177
115.111
115.045
114.977
114.909
114.839
114.767
114.693
114.618
114.54
114.46
114.379
114.295
114.21
114.123
114.034
113.945
113.854
113.763
113.671
113.58
113.488
113.396
113.305
113.215
113.126
113.038
112.951
112.866
112.783
112.702
112.623
112.546
112.472
112.4
112.33
112.263
112.198
112.136
112.076
112.019
111.965
111.913
111.863
111.816
111.771
111.728
111.688
111.65
111.614
111.58
111.547
111.517
111.489
111.462
111.437
111.413
111.391
111.37
111.351
111.333
111.316
111.3
111.286
111.272
111.26
111.248
111.237
111.227
111.217
111.209
111.2
111.193
111.186
111.18
111.174
111.169
111.164
111.159
111.155
111.151
111.147
111.144
111.141
111.138
111.136
111.134
111.131
111.129
111.128
111.126
111.125
111.123
111.122
111.121
111.12
111.119
111.118
111.118
111.117
111.116
111.116
111.115
111.115
111.114
111.114
111.114
111.114
111.113
111.113
111.113
111.113
111.112
111.112
111.112
111.112
111.112
111.112
111.112
111.112
111.112
111.112
111.111
111.111
111.111
111.111
111.111
111.111
111.111
111.111
111.111
111.111
111.111
111.111
111.111
111.111
111.111
111.111
111.111
111.111
111.111
111.111
111.111
111.111
111.111
111.111
111.111
111.111
111.111
111.111
111.111
111.111
111.111
111.111
111.111
111.111
111.111
111.111
111.111
111.111
111.111
111.111
111.111
111.111
111.111
111.111
111.111
111.111
111.111
111.111
111.111
111.111
111.111
111.111
111.111
111.111
111.111
111.111
111.111
111.111
111.111
111.111
111.111
111.111
111.111
111.111
111.111
111.111
111.111
111.111
111.111
111.111
111.111
111.111
111.111
111.111
111.111
111.111
111.111
111.111
111.111
111.111
111.111
111.111
111.111
111.111
111.111
111.111
111.111
111.111
111.111
111.111
111.111
111.111
111.111
111.111
111.111
111.111
111.111
111.111
111.111
111.111
111.111
111.111
111.111
111.111
111.111
111.111
111.111
111.111
111.111
111.111
111.111
111.111
111.111
111.111
111.111
111.111
111.111
111.111
111.111
111.111
111.111
111.111
111.111
111.111
111.111
111.111
111.111
111.111
111.111
111.111
111.111
111.111
111.111
111.111
111.111
111.111
111.111
111.111
111.111
111.111
111.111
111.111
111.111
111.111
111.111
111.111
111.111
111.111
111.111
111.111
111.111
111.111
111.111
111.111
111.111
111.111
111.111
111.111
111.111
111.111
111.111
111.111
111.111
111.111
111.111
111.111
111.111
111.111
111.111
111.111
111.111
111.111
111.111
111.111
111.111
111.111
111.111
111.111
111.111
111.111
111.111
111.111
111.111
111.111
111.111
111.111
111.111
111.111
111.111
111.111
111.111
111.111
111.111
111.111
111.111
111.111
111.111
111.111
111.111
111.111
111.111
111.111
111.111
111.111
111.111
111.111
111.111
111.111
111.111
111.111
111.111
111.111
111.111
111.111
111.111
111.111
111.111
111.111
111.111
111.111
111.111
111.111
111.111
111.111
111.111
111.111
111.111
111.111
111.111
111.111
111.111
111.111
111.111
111.111
111.111
111.111
111.111
111.111
111.111
111.111
111.111
111.111
111.111
111.111
111.111
111.111
111.111
111.111
111.111
111.111
111.111
111.111
111.111
111.111
111.111
111.111
111.111
111.111
111.111
111.111
111.111
111.111
111.111
111.111
111.111
111.111
111.111
111.111
111.111
111.111
111.111
111.111
111.111
111.111
111.111
111.111
111.111
111.111
111.111
111.111
111.111
111.111
111.111
111.111
111.111
111.111
111.111
111.111
111.111
111.111
111.111
111.111
111.111
111.111
111.111
111.111
111.111
111.111
111.111
111.111
111.111
111.111
111.111
111.111
111.111
111.111
111.111
111.111
111.111
111.111
111.111
111.111
111.111
111.111
111.111
111.111
111.111
111.111
111.111
111.111
111.111
111.111
111.111
111.111
111.111
111.111
111.111
111.111
111.111
111.111
111.111
111.111
111.111
111.111
111.111
111.111
111.111
111.111
111.111
111.111
111.111
111.111
111.111
111.111
111.111
111.111
111.111
111.111
111.111
111.111
111.111
111.111
111.111
111.111
111.111
111.111
111.111
111.111
111.111
111.111
111.111
111.111
111.111
111.111
111.111
111.111
111.111
111.111
111.111
111.111
111.111
111.111
111.111
111.111
111.111
111.111
111.111
111.111
111.111
111.111
111.111
111.111
111.111
111.111
111.111
111.111
111.111
111.111
111.111
111.111
111.111
111.111
111.111
111.112
111.112
111.112
111.112
111.112
111.112
111.113
111.113
111.113
111.114
111.115
111.115
111.116
111.117
111.119
111.12
111.122
111.125
111.127
111.131
111.134
111.138
111.143
111.147
111.152
111.157
111.16
111.161
111.157
111.148
111.128
111.092
111.032
110.937
110.792
110.578
110.271
109.843
109.277
108.551
107.804
106.52
108.215
94.4279
154.976
153.06
150.311
147.128
143.913
140.907
138.2
135.797
133.677
131.811
130.172
128.734
127.473
126.367
125.394
124.537
123.779
123.109
122.512
121.98
121.504
121.077
120.692
120.343
120.028
119.741
119.479
119.239
119.019
118.816
118.628
118.454
118.291
118.139
117.996
117.86
117.73
117.605
117.485
117.367
117.252
117.139
117.026
116.913
116.8
116.686
116.57
116.453
116.334
116.213
116.09
115.965
115.838
115.709
115.577
115.445
115.311
115.176
115.04
114.904
114.767
114.631
114.495
114.361
114.227
114.096
113.966
113.838
113.713
113.59
113.47
113.353
113.24
113.13
113.023
112.92
112.821
112.725
112.633
112.545
112.46
112.379
112.302
112.229
112.159
112.092
112.029
111.969
111.912
111.859
111.808
111.761
111.716
111.673
111.634
111.596
111.561
111.528
111.498
111.469
111.442
111.417
111.394
111.372
111.351
111.333
111.315
111.299
111.284
111.27
111.257
111.245
111.233
111.223
111.214
111.205
111.197
111.189
111.183
111.176
111.171
111.165
111.16
111.156
111.152
111.148
111.145
111.142
111.139
111.136
111.134
111.132
111.13
111.128
111.126
111.125
111.123
111.122
111.121
111.12
111.119
111.118
111.117
111.117
111.116
111.116
111.115
111.115
111.114
111.114
111.114
111.113
111.113
111.113
111.113
111.113
111.112
111.112
111.112
111.112
111.112
111.112
111.112
111.112
111.112
111.112
111.111
111.111
111.111
111.111
111.111
111.111
111.111
111.111
111.111
111.111
111.111
111.111
111.111
111.111
111.111
111.111
111.111
111.111
111.111
111.111
111.111
111.111
111.111
111.111
111.111
111.111
111.111
111.111
111.111
111.111
111.111
111.111
111.111
111.111
111.111
111.111
111.111
111.111
111.111
111.111
111.111
111.111
111.111
111.111
111.111
111.111
111.111
111.111
111.111
111.111
111.111
111.111
111.111
111.111
111.111
111.111
111.111
111.111
111.111
111.111
111.111
111.111
111.111
111.111
111.111
111.111
111.111
111.111
111.111
111.111
111.111
111.111
111.111
111.111
111.111
111.111
111.111
111.111
111.111
111.111
111.111
111.111
111.111
111.111
111.111
111.111
111.111
111.111
111.111
111.111
111.111
111.111
111.111
111.111
111.111
111.111
111.111
111.111
111.111
111.111
111.111
111.111
111.111
111.111
111.111
111.111
111.111
111.111
111.111
111.111
111.111
111.111
111.111
111.111
111.111
111.111
111.111
111.111
111.111
111.111
111.111
111.111
111.111
111.111
111.111
111.111
111.111
111.111
111.111
111.111
111.111
111.111
111.111
111.111
111.111
111.111
111.111
111.111
111.111
111.111
111.111
111.111
111.111
111.111
111.111
111.111
111.111
111.111
111.111
111.111
111.111
111.111
111.111
111.111
111.111
111.111
111.111
111.111
111.111
111.111
111.111
111.111
111.111
111.111
111.111
111.111
111.111
111.111
111.111
111.111
111.111
111.111
111.111
111.111
111.111
111.111
111.111
111.111
111.111
111.111
111.111
111.111
111.111
111.111
111.111
111.111
111.111
111.111
111.111
111.111
111.111
111.111
111.111
111.111
111.111
111.111
111.111
111.111
111.111
111.111
111.111
111.111
111.111
111.111
111.111
111.111
111.111
111.111
111.111
111.111
111.111
111.111
111.111
111.111
111.111
111.111
111.111
111.111
111.111
111.111
111.111
111.111
111.111
111.111
111.111
111.111
111.111
111.111
111.111
111.111
111.111
111.111
111.111
111.111
111.111
111.111
111.111
111.111
111.111
111.111
111.111
111.111
111.111
111.111
111.111
111.111
111.111
111.111
111.111
111.111
111.111
111.111
111.111
111.111
111.111
111.111
111.111
111.111
111.111
111.111
111.111
111.111
111.111
111.111
111.111
111.111
111.111
111.111
111.111
111.111
111.111
111.111
111.111
111.111
111.111
111.111
111.111
111.111
111.111
111.111
111.111
111.111
111.111
111.111
111.111
111.111
111.111
111.111
111.111
111.111
111.111
111.111
111.111
111.111
111.111
111.111
111.111
111.111
111.111
111.111
111.111
111.111
111.111
111.111
111.111
111.111
111.111
111.111
111.111
111.111
111.111
111.111
111.111
111.111
111.111
111.111
111.111
111.111
111.111
111.111
111.111
111.111
111.111
111.111
111.111
111.111
111.111
111.111
111.111
111.111
111.111
111.111
111.111
111.111
111.111
111.111
111.111
111.111
111.111
111.111
111.111
111.111
111.111
111.111
111.111
111.111
111.111
111.111
111.111
111.111
111.111
111.111
111.111
111.111
111.111
111.111
111.111
111.111
111.111
111.111
111.111
111.111
111.111
111.111
111.111
111.111
111.111
111.111
111.111
111.111
111.111
111.111
111.111
111.111
111.111
111.111
111.111
111.111
111.111
111.111
111.111
111.111
111.111
111.111
111.111
111.111
111.111
111.111
111.112
111.112
111.112
111.112
111.112
111.112
111.113
111.113
111.114
111.114
111.115
111.116
111.117
111.118
111.119
111.121
111.123
111.126
111.129
111.133
111.137
111.142
111.148
111.155
111.163
111.172
111.181
111.19
111.199
111.206
111.208
111.204
111.187
111.152
111.086
110.976
110.801
110.532
110.13
109.545
108.727
107.593
106.293
103.801
106.333
79.5301
153.482
152.57
151.175
149.277
147.041
144.693
142.399
140.243
138.255
136.438
134.787
133.294
131.945
130.731
129.638
128.654
127.767
126.966
126.242
125.586
124.991
124.449
123.954
123.502
123.087
122.706
122.354
122.029
121.728
121.448
121.187
120.942
120.712
120.495
120.289
120.093
119.905
119.724
119.548
119.377
119.209
119.043
118.879
118.716
118.552
118.388
118.223
118.057
117.889
117.719
117.548
117.374
117.198
117.021
116.842
116.663
116.482
116.3
116.119
115.937
115.756
115.576
115.398
115.221
115.047
114.875
114.707
114.541
114.379
114.221
114.067
113.917
113.772
113.632
113.496
113.365
113.239
113.117
113.001
112.89
112.783
112.682
112.585
112.493
112.405
112.322
112.243
112.168
112.098
112.031
111.968
111.909
111.853
111.801
111.751
111.705
111.662
111.621
111.583
111.548
111.515
111.484
111.455
111.428
111.404
111.38
111.359
111.339
111.321
111.303
111.288
111.273
111.259
111.247
111.235
111.225
111.215
111.206
111.197
111.19
111.183
111.176
111.17
111.165
111.16
111.156
111.151
111.148
111.144
111.141
111.138
111.136
111.133
111.131
111.129
111.127
111.126
111.124
111.123
111.122
111.121
111.12
111.119
111.118
111.117
111.117
111.116
111.115
111.115
111.115
111.114
111.114
111.114
111.113
111.113
111.113
111.113
111.112
111.112
111.112
111.112
111.112
111.112
111.112
111.112
111.112
111.112
111.111
111.111
111.111
111.111
111.111
111.111
111.111
111.111
111.111
111.111
111.111
111.111
111.111
111.111
111.111
111.111
111.111
111.111
111.111
111.111
111.111
111.111
111.111
111.111
111.111
111.111
111.111
111.111
111.111
111.111
111.111
111.111
111.111
111.111
111.111
111.111
111.111
111.111
111.111
111.111
111.111
111.111
111.111
111.111
111.111
111.111
111.111
111.111
111.111
111.111
111.111
111.111
111.111
111.111
111.111
111.111
111.111
111.111
111.111
111.111
111.111
111.111
111.111
111.111
111.111
111.111
111.111
111.111
111.111
111.111
111.111
111.111
111.111
111.111
111.111
111.111
111.111
111.111
111.111
111.111
111.111
111.111
111.111
111.111
111.111
111.111
111.111
111.111
111.111
111.111
111.111
111.111
111.111
111.111
111.111
111.111
111.111
111.111
111.111
111.111
111.111
111.111
111.111
111.111
111.111
111.111
111.111
111.111
111.111
111.111
111.111
111.111
111.111
111.111
111.111
111.111
111.111
111.111
111.111
111.111
111.111
111.111
111.111
111.111
111.111
111.111
111.111
111.111
111.111
111.111
111.111
111.111
111.111
111.111
111.111
111.111
111.111
111.111
111.111
111.111
111.111
111.111
111.111
111.111
111.111
111.111
111.111
111.111
111.111
111.111
111.111
111.111
111.111
111.111
111.111
111.111
111.111
111.111
111.111
111.111
111.111
111.111
111.111
111.111
111.111
111.111
111.111
111.111
111.111
111.111
111.111
111.111
111.111
111.111
111.111
111.111
111.111
111.111
111.111
111.111
111.111
111.111
111.111
111.111
111.111
111.111
111.111
111.111
111.111
111.111
111.111
111.111
111.111
111.111
111.111
111.111
111.111
111.111
111.111
111.111
111.111
111.111
111.111
111.111
111.111
111.111
111.111
111.111
111.111
111.111
111.111
111.111
111.111
111.111
111.111
111.111
111.111
111.111
111.111
111.111
111.111
111.111
111.111
111.111
111.111
111.111
111.111
111.111
111.111
111.111
111.111
111.111
111.111
111.111
111.111
111.111
111.111
111.111
111.111
111.111
111.111
111.111
111.111
111.111
111.111
111.111
111.111
111.111
111.111
111.111
111.111
111.111
111.111
111.111
111.111
111.111
111.111
111.111
111.111
111.111
111.111
111.111
111.111
111.111
111.111
111.111
111.111
111.111
111.111
111.111
111.111
111.111
111.111
111.111
111.111
111.111
111.111
111.111
111.111
111.111
111.111
111.111
111.111
111.111
111.111
111.111
111.111
111.111
111.111
111.111
111.111
111.111
111.111
111.111
111.111
111.111
111.111
111.111
111.111
111.111
111.111
111.111
111.111
111.111
111.111
111.111
111.111
111.111
111.111
111.111
111.111
111.111
111.111
111.111
111.111
111.111
111.111
111.111
111.111
111.111
111.111
111.111
111.111
111.111
111.111
111.111
111.111
111.111
111.111
111.111
111.111
111.111
111.111
111.111
111.111
111.111
111.111
111.111
111.111
111.111
111.111
111.111
111.111
111.111
111.111
111.111
111.111
111.111
111.111
111.111
111.111
111.111
111.111
111.111
111.111
111.111
111.111
111.111
111.111
111.111
111.111
111.111
111.111
111.111
111.111
111.111
111.111
111.111
111.111
111.111
111.111
111.111
111.111
111.111
111.111
111.111
111.111
111.111
111.111
111.111
111.111
111.111
111.111
111.111
111.111
111.111
111.112
111.112
111.112
111.112
111.112
111.112
111.113
111.113
111.113
111.114
111.115
111.116
111.117
111.118
111.119
111.121
111.123
111.126
111.129
111.133
111.138
111.144
111.151
111.159
111.168
111.179
111.191
111.205
111.22
111.235
111.25
111.262
111.268
111.265
111.243
111.193
111.099
110.937
110.673
110.263
109.641
108.732
107.406
105.778
102.532
105.261
71.0317
152.55
152.053
151.366
150.356
148.983
147.339
145.558
143.755
142
140.329
138.757
137.291
135.932
134.677
133.522
132.461
131.487
130.594
129.775
129.023
128.331
127.694
127.106
126.563
126.061
125.595
125.162
124.758
124.381
124.028
123.696
123.383
123.087
122.806
122.538
122.281
122.034
121.795
121.562
121.335
121.113
120.893
120.676
120.46
120.244
120.028
119.812
119.595
119.376
119.157
118.935
118.712
118.488
118.262
118.035
117.808
117.581
117.353
117.126
116.9
116.676
116.454
116.234
116.017
115.803
115.593
115.387
115.185
114.989
114.797
114.611
114.431
114.256
114.087
113.924
113.767
113.616
113.471
113.332
113.2
113.073
112.953
112.838
112.728
112.625
112.526
112.433
112.345
112.262
112.183
112.109
112.04
111.974
111.913
111.855
111.801
111.75
111.703
111.659
111.617
111.579
111.543
111.509
111.478
111.449
111.422
111.397
111.374
111.353
111.333
111.314
111.297
111.282
111.267
111.254
111.242
111.23
111.22
111.21
111.201
111.193
111.186
111.179
111.173
111.167
111.162
111.157
111.153
111.149
111.145
111.142
111.139
111.136
111.134
111.132
111.129
111.128
111.126
111.124
111.123
111.122
111.121
111.12
111.119
111.118
111.117
111.117
111.116
111.115
111.115
111.115
111.114
111.114
111.114
111.113
111.113
111.113
111.113
111.112
111.112
111.112
111.112
111.112
111.112
111.112
111.112
111.112
111.112
111.111
111.111
111.111
111.111
111.111
111.111
111.111
111.111
111.111
111.111
111.111
111.111
111.111
111.111
111.111
111.111
111.111
111.111
111.111
111.111
111.111
111.111
111.111
111.111
111.111
111.111
111.111
111.111
111.111
111.111
111.111
111.111
111.111
111.111
111.111
111.111
111.111
111.111
111.111
111.111
111.111
111.111
111.111
111.111
111.111
111.111
111.111
111.111
111.111
111.111
111.111
111.111
111.111
111.111
111.111
111.111
111.111
111.111
111.111
111.111
111.111
111.111
111.111
111.111
111.111
111.111
111.111
111.111
111.111
111.111
111.111
111.111
111.111
111.111
111.111
111.111
111.111
111.111
111.111
111.111
111.111
111.111
111.111
111.111
111.111
111.111
111.111
111.111
111.111
111.111
111.111
111.111
111.111
111.111
111.111
111.111
111.111
111.111
111.111
111.111
111.111
111.111
111.111
111.111
111.111
111.111
111.111
111.111
111.111
111.111
111.111
111.111
111.111
111.111
111.111
111.111
111.111
111.111
111.111
111.111
111.111
111.111
111.111
111.111
111.111
111.111
111.111
111.111
111.111
111.111
111.111
111.111
111.111
111.111
111.111
111.111
111.111
111.111
111.111
111.111
111.111
111.111
111.111
111.111
111.111
111.111
111.111
111.111
111.111
111.111
111.111
111.111
111.111
111.111
111.111
111.111
111.111
111.111
111.111
111.111
111.111
111.111
111.111
111.111
111.111
111.111
111.111
111.111
111.111
111.111
111.111
111.111
111.111
111.111
111.111
111.111
111.111
111.111
111.111
111.111
111.111
111.111
111.111
111.111
111.111
111.111
111.111
111.111
111.111
111.111
111.111
111.111
111.111
111.111
111.111
111.111
111.111
111.111
111.111
111.111
111.111
111.111
111.111
111.111
111.111
111.111
111.111
111.111
111.111
111.111
111.111
111.111
111.111
111.111
111.111
111.111
111.111
111.111
111.111
111.111
111.111
111.111
111.111
111.111
111.111
111.111
111.111
111.111
111.111
111.111
111.111
111.111
111.111
111.111
111.111
111.111
111.111
111.111
111.111
111.111
111.111
111.111
111.111
111.111
111.111
111.111
111.111
111.111
111.111
111.111
111.111
111.111
111.111
111.111
111.111
111.111
111.111
111.111
111.111
111.111
111.111
111.111
111.111
111.111
111.111
111.111
111.111
111.111
111.111
111.111
111.111
111.111
111.111
111.111
111.111
111.111
111.111
111.111
111.111
111.111
111.111
111.111
111.111
111.111
111.111
111.111
111.111
111.111
111.111
111.111
111.111
111.111
111.111
111.111
111.111
111.111
111.111
111.111
111.111
111.111
111.111
111.111
111.111
111.111
111.111
111.111
111.111
111.111
111.111
111.111
111.111
111.111
111.111
111.111
111.111
111.111
111.111
111.111
111.111
111.111
111.111
111.111
111.111
111.111
111.111
111.111
111.111
111.111
111.111
111.111
111.111
111.111
111.111
111.111
111.111
111.111
111.111
111.111
111.111
111.111
111.111
111.111
111.111
111.111
111.111
111.111
111.111
111.111
111.111
111.111
111.111
111.111
111.111
111.111
111.111
111.111
111.111
111.111
111.111
111.111
111.111
111.111
111.111
111.111
111.111
111.111
111.111
111.111
111.111
111.111
111.111
111.111
111.111
111.111
111.111
111.111
111.111
111.111
111.111
111.111
111.111
111.111
111.111
111.111
111.112
111.112
111.112
111.112
111.112
111.112
111.113
111.113
111.113
111.114
111.114
111.115
111.116
111.117
111.119
111.12
111.123
111.125
111.128
111.132
111.137
111.143
111.15
111.158
111.168
111.179
111.193
111.209
111.228
111.249
111.272
111.297
111.323
111.347
111.365
111.373
111.361
111.315
111.215
111.032
110.72
110.22
109.444
108.255
106.687
103.542
105.659
72.9224
151.98
151.663
151.285
150.758
149.981
148.932
147.664
146.265
144.813
143.363
141.949
140.589
139.293
138.068
136.916
135.837
134.829
133.89
133.016
132.202
131.444
130.739
130.081
129.468
128.894
128.358
127.855
127.383
126.939
126.519
126.122
125.746
125.387
125.044
124.716
124.4
124.094
123.798
123.509
123.226
122.948
122.674
122.402
122.132
121.864
121.595
121.327
121.058
120.788
120.518
120.246
119.974
119.7
119.426
119.152
118.878
118.604
118.332
118.061
117.792
117.525
117.262
117.002
116.746
116.494
116.248
116.007
115.772
115.542
115.319
115.103
114.894
114.691
114.496
114.308
114.127
113.953
113.787
113.628
113.476
113.331
113.193
113.062
112.937
112.819
112.707
112.601
112.501
112.406
112.317
112.233
112.154
112.08
112.011
111.946
111.885
111.827
111.774
111.724
111.678
111.634
111.594
111.556
111.521
111.489
111.458
111.43
111.404
111.38
111.358
111.337
111.318
111.301
111.285
111.27
111.256
111.243
111.232
111.221
111.211
111.202
111.194
111.186
111.18
111.173
111.167
111.162
111.157
111.153
111.149
111.145
111.142
111.139
111.136
111.134
111.131
111.129
111.127
111.126
111.124
111.123
111.122
111.121
111.12
111.119
111.118
111.117
111.116
111.116
111.115
111.115
111.114
111.114
111.114
111.113
111.113
111.113
111.113
111.113
111.112
111.112
111.112
111.112
111.112
111.112
111.112
111.112
111.112
111.111
111.111
111.111
111.111
111.111
111.111
111.111
111.111
111.111
111.111
111.111
111.111
111.111
111.111
111.111
111.111
111.111
111.111
111.111
111.111
111.111
111.111
111.111
111.111
111.111
111.111
111.111
111.111
111.111
111.111
111.111
111.111
111.111
111.111
111.111
111.111
111.111
111.111
111.111
111.111
111.111
111.111
111.111
111.111
111.111
111.111
111.111
111.111
111.111
111.111
111.111
111.111
111.111
111.111
111.111
111.111
111.111
111.111
111.111
111.111
111.111
111.111
111.111
111.111
111.111
111.111
111.111
111.111
111.111
111.111
111.111
111.111
111.111
111.111
111.111
111.111
111.111
111.111
111.111
111.111
111.111
111.111
111.111
111.111
111.111
111.111
111.111
111.111
111.111
111.111
111.111
111.111
111.111
111.111
111.111
111.111
111.111
111.111
111.111
111.111
111.111
111.111
111.111
111.111
111.111
111.111
111.111
111.111
111.111
111.111
111.111
111.111
111.111
111.111
111.111
111.111
111.111
111.111
111.111
111.111
111.111
111.111
111.111
111.111
111.111
111.111
111.111
111.111
111.111
111.111
111.111
111.111
111.111
111.111
111.111
111.111
111.111
111.111
111.111
111.111
111.111
111.111
111.111
111.111
111.111
111.111
111.111
111.111
111.111
111.111
111.111
111.111
111.111
111.111
111.111
111.111
111.111
111.111
111.111
111.111
111.111
111.111
111.111
111.111
111.111
111.111
111.111
111.111
111.111
111.111
111.111
111.111
111.111
111.111
111.111
111.111
111.111
111.111
111.111
111.111
111.111
111.111
111.111
111.111
111.111
111.111
111.111
111.111
111.111
111.111
111.111
111.111
111.111
111.111
111.111
111.111
111.111
111.111
111.111
111.111
111.111
111.111
111.111
111.111
111.111
111.111
111.111
111.111
111.111
111.111
111.111
111.111
111.111
111.111
111.111
111.111
111.111
111.111
111.111
111.111
111.111
111.111
111.111
111.111
111.111
111.111
111.111
111.111
111.111
111.111
111.111
111.111
111.111
111.111
111.111
111.111
111.111
111.111
111.111
111.111
111.111
111.111
111.111
111.111
111.111
111.111
111.111
111.111
111.111
111.111
111.111
111.111
111.111
111.111
111.111
111.111
111.111
111.111
111.111
111.111
111.111
111.111
111.111
111.111
111.111
111.111
111.111
111.111
111.111
111.111
111.111
111.111
111.111
111.111
111.111
111.111
111.111
111.111
111.111
111.111
111.111
111.111
111.111
111.111
111.111
111.111
111.111
111.111
111.111
111.111
111.111
111.111
111.111
111.111
111.111
111.111
111.111
111.111
111.111
111.111
111.111
111.111
111.111
111.111
111.111
111.111
111.111
111.111
111.111
111.111
111.111
111.111
111.111
111.111
111.111
111.111
111.111
111.111
111.111
111.111
111.111
111.111
111.111
111.111
111.111
111.111
111.111
111.111
111.111
111.111
111.111
111.111
111.111
111.111
111.111
111.111
111.111
111.111
111.111
111.111
111.111
111.111
111.111
111.111
111.111
111.111
111.111
111.111
111.111
111.111
111.111
111.111
111.111
111.111
111.111
111.111
111.111
111.111
111.111
111.111
111.111
111.111
111.111
111.111
111.111
111.111
111.111
111.111
111.111
111.111
111.111
111.111
111.111
111.111
111.111
111.111
111.111
111.111
111.111
111.111
111.111
111.111
111.111
111.111
111.112
111.112
111.112
111.112
111.112
111.112
111.113
111.113
111.114
111.114
111.115
111.116
111.117
111.118
111.119
111.121
111.124
111.127
111.13
111.135
111.14
111.147
111.154
111.164
111.176
111.19
111.207
111.227
111.251
111.279
111.312
111.35
111.393
111.44
111.491
111.542
111.59
111.626
111.638
111.607
111.502
111.278
110.864
110.161
109.081
107.092
107.476
87.9707
151.588
151.373
151.142
150.861
150.446
149.83
149.002
147.996
146.87
145.68
144.468
143.262
142.081
140.935
139.835
138.783
137.784
136.837
135.943
135.099
134.304
133.555
132.849
132.184
131.557
130.965
130.406
129.876
129.374
128.896
128.442
128.007
127.591
127.191
126.806
126.433
126.071
125.719
125.374
125.037
124.704
124.375
124.05
123.727
123.405
123.085
122.764
122.444
122.123
121.802
121.481
121.159
120.838
120.516
120.195
119.876
119.557
119.241
118.927
118.616
118.309
118.006
117.708
117.415
117.128
116.847
116.573
116.306
116.046
115.793
115.549
115.313
115.085
114.865
114.654
114.451
114.256
114.07
113.892
113.723