/*--------------------------------*- C++ -*----------------------------------*\
  =========                 |
  \\      /  F ield         | OpenFOAM: The Open Source CFD Toolbox
   \\    /   O peration     | Website:  https://openfoam.org
    \\  /    A nd           | Version:  9
     \\/     M anipulation  |
\*---------------------------------------------------------------------------*/
FoamFile
{
    format      ascii;
    class       volScalarField;
    location    "0.5";
    object      f_2;
}
// * * * * * * * * * * * * * * * * * * * * * * * * * * * * * * * * * * * * * //

dimensions      [1 -3 0 0 0 0 0];

internalField   nonuniform List<scalar> 
120000
(
116.227
114.148
113.55
113.238
113.026
112.854
112.721
112.619
112.545
112.49
112.452
112.425
112.407
112.397
112.392
112.392
112.396
112.402
112.41
112.421
112.432
112.445
112.458
112.472
112.486
112.5
112.514
112.527
112.54
112.552
112.562
112.572
112.58
112.586
112.591
112.594
112.594
112.593
112.59
112.584
112.576
112.566
112.553
112.538
112.521
112.502
112.48
112.457
112.432
112.405
112.377
112.347
112.315
112.283
112.25
112.215
112.181
112.145
112.109
112.073
112.037
112.001
111.965
111.93
111.894
111.86
111.826
111.792
111.76
111.728
111.697
111.666
111.637
111.609
111.582
111.556
111.53
111.506
111.483
111.461
111.44
111.42
111.4
111.382
111.365
111.348
111.333
111.318
111.304
111.291
111.279
111.267
111.256
111.246
111.236
111.227
111.219
111.211
111.203
111.196
111.19
111.184
111.178
111.173
111.168
111.164
111.159
111.156
111.152
111.149
111.145
111.143
111.14
111.138
111.135
111.133
111.131
111.13
111.128
111.126
111.125
111.124
111.123
111.122
111.121
111.12
111.119
111.118
111.118
111.117
111.116
111.116
111.115
111.115
111.115
111.114
111.114
111.114
111.113
111.113
111.113
111.113
111.113
111.112
111.112
111.112
111.112
111.112
111.112
111.112
111.112
111.112
111.112
111.112
111.111
111.111
111.111
111.111
111.111
111.111
111.111
111.111
111.111
111.111
111.111
111.111
111.111
111.111
111.111
111.111
111.111
111.111
111.111
111.111
111.111
111.111
111.111
111.111
111.111
111.111
111.111
111.111
111.111
111.111
111.111
111.111
111.111
111.111
111.111
111.111
111.111
111.111
111.111
111.111
111.111
111.111
111.111
111.111
111.111
111.111
111.111
111.111
111.111
111.111
111.111
111.111
111.111
111.111
111.111
111.111
111.111
111.111
111.111
111.111
111.111
111.111
111.111
111.111
111.111
111.111
111.111
111.111
111.111
111.111
111.111
111.111
111.111
111.111
111.111
111.111
111.111
111.111
111.111
111.111
111.111
111.111
111.111
111.111
111.111
111.111
111.111
111.111
111.111
111.111
111.111
111.111
111.111
111.111
111.111
111.111
111.111
111.111
111.111
111.111
111.111
111.111
111.111
111.111
111.111
111.111
111.111
111.111
111.111
111.111
111.111
111.111
111.111
111.111
111.111
111.111
111.111
111.111
111.111
111.111
111.111
111.111
111.111
111.111
111.111
111.111
111.111
111.111
111.111
111.111
111.111
111.111
111.111
111.111
111.111
111.111
111.111
111.111
111.111
111.111
111.111
111.111
111.111
111.111
111.111
111.111
111.111
111.111
111.111
111.111
111.111
111.111
111.111
111.111
111.111
111.111
111.111
111.111
111.111
111.111
111.111
111.111
111.111
111.111
111.111
111.111
111.111
111.111
111.111
111.111
111.111
111.111
111.111
111.111
111.111
111.111
111.111
111.111
111.111
111.111
111.111
111.111
111.111
111.111
111.111
111.111
111.111
111.111
111.111
111.111
111.111
111.111
111.111
111.111
111.111
111.111
111.111
111.111
111.111
111.111
111.111
111.111
111.111
111.111
111.111
111.111
111.111
111.111
111.111
111.111
111.111
111.111
111.111
111.111
111.111
111.111
111.111
111.111
111.111
111.111
111.111
111.111
111.111
111.111
111.111
111.111
111.111
111.111
111.111
111.111
111.111
111.111
111.111
111.111
111.111
111.111
111.111
111.111
111.111
111.111
111.111
111.111
111.111
111.111
111.111
111.111
111.111
111.111
111.111
111.111
111.111
111.111
111.111
111.111
111.111
111.111
111.111
111.111
111.111
111.111
111.111
111.111
111.111
111.111
111.111
111.111
111.111
111.111
111.111
111.111
111.111
111.111
111.111
111.111
111.111
111.111
111.111
111.111
111.111
111.111
111.111
111.111
111.111
111.111
111.111
111.111
111.111
111.111
111.111
111.111
111.111
111.111
111.111
111.111
111.111
111.111
111.111
111.111
111.111
111.111
111.111
111.111
111.111
111.111
111.111
111.111
111.111
111.111
111.111
111.111
111.111
111.111
111.111
111.111
111.111
111.111
111.111
111.111
111.111
111.111
111.111
111.111
111.111
111.111
111.111
111.111
111.111
111.111
111.111
111.111
111.111
111.111
111.111
111.111
111.111
111.111
111.111
111.111
111.111
111.111
111.111
111.111
111.111
111.111
111.111
111.111
111.111
111.111
111.111
111.111
111.111
111.111
111.111
111.111
111.111
111.111
111.111
111.111
111.111
111.111
111.111
111.111
111.111
111.111
111.111
111.111
111.111
111.111
111.111
111.111
111.111
111.111
111.111
111.111
111.111
111.111
111.111
111.111
111.111
111.111
111.111
111.111
111.111
111.111
111.111
111.111
111.111
111.111
111.111
111.111
111.111
111.111
111.111
111.111
111.111
111.111
111.111
111.111
111.111
111.111
111.111
111.111
111.111
111.111
111.111
111.11
111.11
111.11
111.11
111.109
111.109
111.109
111.108
111.107
111.106
111.105
111.104
111.102
111.1
111.098
111.095
111.091
111.086
111.081
111.074
111.066
111.056
111.044
111.03
111.013
110.992
110.968
110.94
110.908
110.871
110.831
110.793
110.763
110.757
110.803
110.943
111.235
111.721
112.434
113.318
113.428
118.584
115.719
114.94
114.322
113.882
113.509
113.196
112.938
112.73
112.563
112.429
112.324
112.24
112.174
112.122
112.081
112.05
112.026
112.008
111.995
111.986
111.98
111.976
111.974
111.974
111.974
111.976
111.978
111.98
111.982
111.985
111.987
111.988
111.989
111.989
111.989
111.987
111.985
111.981
111.977
111.971
111.964
111.956
111.947
111.937
111.926
111.913
111.9
111.886
111.87
111.854
111.837
111.819
111.801
111.782
111.763
111.743
111.723
111.702
111.682
111.661
111.64
111.62
111.599
111.579
111.559
111.539
111.52
111.501
111.482
111.464
111.446
111.429
111.412
111.396
111.381
111.366
111.351
111.338
111.324
111.312
111.3
111.288
111.277
111.267
111.257
111.247
111.238
111.23
111.222
111.214
111.207
111.201
111.194
111.188
111.183
111.178
111.173
111.168
111.164
111.16
111.156
111.153
111.15
111.147
111.144
111.141
111.139
111.137
111.135
111.133
111.131
111.129
111.128
111.126
111.125
111.124
111.123
111.122
111.121
111.12
111.119
111.118
111.118
111.117
111.117
111.116
111.116
111.115
111.115
111.114
111.114
111.114
111.114
111.113
111.113
111.113
111.113
111.113
111.112
111.112
111.112
111.112
111.112
111.112
111.112
111.112
111.112
111.112
111.112
111.111
111.111
111.111
111.111
111.111
111.111
111.111
111.111
111.111
111.111
111.111
111.111
111.111
111.111
111.111
111.111
111.111
111.111
111.111
111.111
111.111
111.111
111.111
111.111
111.111
111.111
111.111
111.111
111.111
111.111
111.111
111.111
111.111
111.111
111.111
111.111
111.111
111.111
111.111
111.111
111.111
111.111
111.111
111.111
111.111
111.111
111.111
111.111
111.111
111.111
111.111
111.111
111.111
111.111
111.111
111.111
111.111
111.111
111.111
111.111
111.111
111.111
111.111
111.111
111.111
111.111
111.111
111.111
111.111
111.111
111.111
111.111
111.111
111.111
111.111
111.111
111.111
111.111
111.111
111.111
111.111
111.111
111.111
111.111
111.111
111.111
111.111
111.111
111.111
111.111
111.111
111.111
111.111
111.111
111.111
111.111
111.111
111.111
111.111
111.111
111.111
111.111
111.111
111.111
111.111
111.111
111.111
111.111
111.111
111.111
111.111
111.111
111.111
111.111
111.111
111.111
111.111
111.111
111.111
111.111
111.111
111.111
111.111
111.111
111.111
111.111
111.111
111.111
111.111
111.111
111.111
111.111
111.111
111.111
111.111
111.111
111.111
111.111
111.111
111.111
111.111
111.111
111.111
111.111
111.111
111.111
111.111
111.111
111.111
111.111
111.111
111.111
111.111
111.111
111.111
111.111
111.111
111.111
111.111
111.111
111.111
111.111
111.111
111.111
111.111
111.111
111.111
111.111
111.111
111.111
111.111
111.111
111.111
111.111
111.111
111.111
111.111
111.111
111.111
111.111
111.111
111.111
111.111
111.111
111.111
111.111
111.111
111.111
111.111
111.111
111.111
111.111
111.111
111.111
111.111
111.111
111.111
111.111
111.111
111.111
111.111
111.111
111.111
111.111
111.111
111.111
111.111
111.111
111.111
111.111
111.111
111.111
111.111
111.111
111.111
111.111
111.111
111.111
111.111
111.111
111.111
111.111
111.111
111.111
111.111
111.111
111.111
111.111
111.111
111.111
111.111
111.111
111.111
111.111
111.111
111.111
111.111
111.111
111.111
111.111
111.111
111.111
111.111
111.111
111.111
111.111
111.111
111.111
111.111
111.111
111.111
111.111
111.111
111.111
111.111
111.111
111.111
111.111
111.111
111.111
111.111
111.111
111.111
111.111
111.111
111.111
111.111
111.111
111.111
111.111
111.111
111.111
111.111
111.111
111.111
111.111
111.111
111.111
111.111
111.111
111.111
111.111
111.111
111.111
111.111
111.111
111.111
111.111
111.111
111.111
111.111
111.111
111.111
111.111
111.111
111.111
111.111
111.111
111.111
111.111
111.111
111.111
111.111
111.111
111.111
111.111
111.111
111.111
111.111
111.111
111.111
111.111
111.111
111.111
111.111
111.111
111.111
111.111
111.111
111.111
111.111
111.111
111.111
111.111
111.111
111.111
111.111
111.111
111.111
111.111
111.111
111.111
111.111
111.111
111.111
111.111
111.111
111.111
111.111
111.111
111.111
111.111
111.111
111.111
111.111
111.111
111.111
111.111
111.111
111.111
111.111
111.111
111.111
111.111
111.111
111.111
111.111
111.111
111.111
111.111
111.111
111.111
111.111
111.111
111.111
111.111
111.111
111.111
111.111
111.111
111.111
111.111
111.111
111.111
111.111
111.111
111.111
111.111
111.111
111.111
111.111
111.111
111.111
111.111
111.111
111.111
111.111
111.111
111.111
111.111
111.111
111.111
111.111
111.111
111.111
111.111
111.111
111.111
111.111
111.111
111.111
111.111
111.111
111.111
111.111
111.111
111.111
111.111
111.111
111.111
111.11
111.11
111.11
111.11
111.11
111.109
111.109
111.109
111.108
111.107
111.106
111.105
111.104
111.103
111.101
111.099
111.096
111.094
111.09
111.086
111.082
111.077
111.072
111.067
111.062
111.058
111.055
111.055
111.059
111.069
111.088
111.118
111.162
111.221
111.296
111.386
111.486
111.601
111.727
111.439
119.272
116.887
116.107
115.231
114.591
114.068
113.628
113.253
112.937
112.673
112.455
112.276
112.128
112.006
111.906
111.823
111.754
111.698
111.65
111.611
111.578
111.551
111.527
111.508
111.491
111.476
111.464
111.453
111.443
111.435
111.427
111.421
111.415
111.409
111.405
111.4
111.396
111.392
111.389
111.385
111.382
111.379
111.376
111.373
111.37
111.367
111.363
111.36
111.357
111.354
111.35
111.346
111.342
111.338
111.334
111.329
111.325
111.32
111.315
111.31
111.305
111.299
111.294
111.288
111.282
111.277
111.271
111.265
111.259
111.253
111.248
111.242
111.236
111.231
111.225
111.22
111.214
111.209
111.204
111.199
111.195
111.19
111.186
111.182
111.178
111.174
111.17
111.166
111.163
111.16
111.157
111.154
111.151
111.148
111.146
111.143
111.141
111.139
111.137
111.135
111.134
111.132
111.13
111.129
111.128
111.126
111.125
111.124
111.123
111.122
111.121
111.12
111.12
111.119
111.118
111.118
111.117
111.117
111.116
111.116
111.115
111.115
111.115
111.114
111.114
111.114
111.114
111.113
111.113
111.113
111.113
111.113
111.112
111.112
111.112
111.112
111.112
111.112
111.112
111.112
111.112
111.112
111.112
111.112
111.111
111.111
111.111
111.111
111.111
111.111
111.111
111.111
111.111
111.111
111.111
111.111
111.111
111.111
111.111
111.111
111.111
111.111
111.111
111.111
111.111
111.111
111.111
111.111
111.111
111.111
111.111
111.111
111.111
111.111
111.111
111.111
111.111
111.111
111.111
111.111
111.111
111.111
111.111
111.111
111.111
111.111
111.111
111.111
111.111
111.111
111.111
111.111
111.111
111.111
111.111
111.111
111.111
111.111
111.111
111.111
111.111
111.111
111.111
111.111
111.111
111.111
111.111
111.111
111.111
111.111
111.111
111.111
111.111
111.111
111.111
111.111
111.111
111.111
111.111
111.111
111.111
111.111
111.111
111.111
111.111
111.111
111.111
111.111
111.111
111.111
111.111
111.111
111.111
111.111
111.111
111.111
111.111
111.111
111.111
111.111
111.111
111.111
111.111
111.111
111.111
111.111
111.111
111.111
111.111
111.111
111.111
111.111
111.111
111.111
111.111
111.111
111.111
111.111
111.111
111.111
111.111
111.111
111.111
111.111
111.111
111.111
111.111
111.111
111.111
111.111
111.111
111.111
111.111
111.111
111.111
111.111
111.111
111.111
111.111
111.111
111.111
111.111
111.111
111.111
111.111
111.111
111.111
111.111
111.111
111.111
111.111
111.111
111.111
111.111
111.111
111.111
111.111
111.111
111.111
111.111
111.111
111.111
111.111
111.111
111.111
111.111
111.111
111.111
111.111
111.111
111.111
111.111
111.111
111.111
111.111
111.111
111.111
111.111
111.111
111.111
111.111
111.111
111.111
111.111
111.111
111.111
111.111
111.111
111.111
111.111
111.111
111.111
111.111
111.111
111.111
111.111
111.111
111.111
111.111
111.111
111.111
111.111
111.111
111.111
111.111
111.111
111.111
111.111
111.111
111.111
111.111
111.111
111.111
111.111
111.111
111.111
111.111
111.111
111.111
111.111
111.111
111.111
111.111
111.111
111.111
111.111
111.111
111.111
111.111
111.111
111.111
111.111
111.111
111.111
111.111
111.111
111.111
111.111
111.111
111.111
111.111
111.111
111.111
111.111
111.111
111.111
111.111
111.111
111.111
111.111
111.111
111.111
111.111
111.111
111.111
111.111
111.111
111.111
111.111
111.111
111.111
111.111
111.111
111.111
111.111
111.111
111.111
111.111
111.111
111.111
111.111
111.111
111.111
111.111
111.111
111.111
111.111
111.111
111.111
111.111
111.111
111.111
111.111
111.111
111.111
111.111
111.111
111.111
111.111
111.111
111.111
111.111
111.111
111.111
111.111
111.111
111.111
111.111
111.111
111.111
111.111
111.111
111.111
111.111
111.111
111.111
111.111
111.111
111.111
111.111
111.111
111.111
111.111
111.111
111.111
111.111
111.111
111.111
111.111
111.111
111.111
111.111
111.111
111.111
111.111
111.111
111.111
111.111
111.111
111.111
111.111
111.111
111.111
111.111
111.111
111.111
111.111
111.111
111.111
111.111
111.111
111.111
111.111
111.111
111.111
111.111
111.111
111.111
111.111
111.111
111.111
111.111
111.111
111.111
111.111
111.111
111.111
111.111
111.111
111.111
111.111
111.111
111.111
111.111
111.111
111.111
111.111
111.111
111.111
111.111
111.111
111.111
111.111
111.111
111.111
111.111
111.111
111.111
111.111
111.111
111.111
111.111
111.111
111.111
111.111
111.111
111.111
111.111
111.111
111.111
111.111
111.111
111.111
111.111
111.111
111.111
111.111
111.111
111.111
111.111
111.111
111.111
111.111
111.111
111.111
111.111
111.111
111.111
111.111
111.111
111.111
111.111
111.111
111.111
111.111
111.111
111.111
111.111
111.111
111.111
111.111
111.111
111.11
111.11
111.11
111.11
111.11
111.109
111.109
111.109
111.108
111.108
111.107
111.106
111.106
111.105
111.104
111.104
111.103
111.103
111.104
111.106
111.11
111.117
111.127
111.144
111.168
111.205
111.256
111.329
111.426
111.55
111.698
111.853
111.979
112.013
111.904
111.516
111.462
108.421
118.827
117.431
117.002
116.096
115.323
114.669
114.12
113.648
113.24
112.889
112.59
112.337
112.123
111.942
111.789
111.659
111.548
111.454
111.372
111.302
111.241
111.188
111.141
111.1
111.063
111.03
111.001
110.974
110.951
110.929
110.91
110.894
110.879
110.866
110.855
110.845
110.838
110.832
110.828
110.825
110.824
110.824
110.826
110.829
110.833
110.838
110.844
110.851
110.859
110.867
110.876
110.886
110.896
110.906
110.916
110.927
110.937
110.947
110.957
110.967
110.977
110.986
110.995
111.004
111.012
111.02
111.027
111.035
111.041
111.047
111.053
111.059
111.064
111.068
111.073
111.077
111.08
111.084
111.087
111.09
111.092
111.094
111.096
111.098
111.1
111.101
111.103
111.104
111.105
111.106
111.107
111.108
111.108
111.109
111.109
111.11
111.11
111.11
111.111
111.111
111.111
111.111
111.111
111.112
111.112
111.112
111.112
111.112
111.112
111.112
111.112
111.112
111.112
111.112
111.112
111.112
111.112
111.112
111.112
111.112
111.112
111.112
111.112
111.112
111.112
111.112
111.112
111.112
111.111
111.111
111.111
111.111
111.111
111.111
111.111
111.111
111.111
111.111
111.111
111.111
111.111
111.111
111.111
111.111
111.111
111.111
111.111
111.111
111.111
111.111
111.111
111.111
111.111
111.111
111.111
111.111
111.111
111.111
111.111
111.111
111.111
111.111
111.111
111.111
111.111
111.111
111.111
111.111
111.111
111.111
111.111
111.111
111.111
111.111
111.111
111.111
111.111
111.111
111.111
111.111
111.111
111.111
111.111
111.111
111.111
111.111
111.111
111.111
111.111
111.111
111.111
111.111
111.111
111.111
111.111
111.111
111.111
111.111
111.111
111.111
111.111
111.111
111.111
111.111
111.111
111.111
111.111
111.111
111.111
111.111
111.111
111.111
111.111
111.111
111.111
111.111
111.111
111.111
111.111
111.111
111.111
111.111
111.111
111.111
111.111
111.111
111.111
111.111
111.111
111.111
111.111
111.111
111.111
111.111
111.111
111.111
111.111
111.111
111.111
111.111
111.111
111.111
111.111
111.111
111.111
111.111
111.111
111.111
111.111
111.111
111.111
111.111
111.111
111.111
111.111
111.111
111.111
111.111
111.111
111.111
111.111
111.111
111.111
111.111
111.111
111.111
111.111
111.111
111.111
111.111
111.111
111.111
111.111
111.111
111.111
111.111
111.111
111.111
111.111
111.111
111.111
111.111
111.111
111.111
111.111
111.111
111.111
111.111
111.111
111.111
111.111
111.111
111.111
111.111
111.111
111.111
111.111
111.111
111.111
111.111
111.111
111.111
111.111
111.111
111.111
111.111
111.111
111.111
111.111
111.111
111.111
111.111
111.111
111.111
111.111
111.111
111.111
111.111
111.111
111.111
111.111
111.111
111.111
111.111
111.111
111.111
111.111
111.111
111.111
111.111
111.111
111.111
111.111
111.111
111.111
111.111
111.111
111.111
111.111
111.111
111.111
111.111
111.111
111.111
111.111
111.111
111.111
111.111
111.111
111.111
111.111
111.111
111.111
111.111
111.111
111.111
111.111
111.111
111.111
111.111
111.111
111.111
111.111
111.111
111.111
111.111
111.111
111.111
111.111
111.111
111.111
111.111
111.111
111.111
111.111
111.111
111.111
111.111
111.111
111.111
111.111
111.111
111.111
111.111
111.111
111.111
111.111
111.111
111.111
111.111
111.111
111.111
111.111
111.111
111.111
111.111
111.111
111.111
111.111
111.111
111.111
111.111
111.111
111.111
111.111
111.111
111.111
111.111
111.111
111.111
111.111
111.111
111.111
111.111
111.111
111.111
111.111
111.111
111.111
111.111
111.111
111.111
111.111
111.111
111.111
111.111
111.111
111.111
111.111
111.111
111.111
111.111
111.111
111.111
111.111
111.111
111.111
111.111
111.111
111.111
111.111
111.111
111.111
111.111
111.111
111.111
111.111
111.111
111.111
111.111
111.111
111.111
111.111
111.111
111.111
111.111
111.111
111.111
111.111
111.111
111.111
111.111
111.111
111.111
111.111
111.111
111.111
111.111
111.111
111.111
111.111
111.111
111.111
111.111
111.111
111.111
111.111
111.111
111.111
111.111
111.111
111.111
111.111
111.111
111.111
111.111
111.111
111.111
111.111
111.111
111.111
111.111
111.111
111.111
111.111
111.111
111.111
111.111
111.111
111.111
111.111
111.111
111.111
111.111
111.111
111.111
111.111
111.111
111.111
111.111
111.111
111.111
111.111
111.111
111.111
111.111
111.111
111.111
111.111
111.111
111.111
111.111
111.111
111.111
111.111
111.111
111.111
111.111
111.111
111.111
111.111
111.111
111.111
111.111
111.111
111.111
111.111
111.111
111.111
111.111
111.111
111.111
111.111
111.111
111.111
111.111
111.111
111.111
111.111
111.111
111.111
111.111
111.111
111.111
111.111
111.111
111.111
111.111
111.111
111.111
111.111
111.111
111.111
111.111
111.11
111.11
111.11
111.11
111.11
111.11
111.109
111.109
111.109
111.109
111.109
111.109
111.11
111.111
111.113
111.116
111.122
111.13
111.142
111.16
111.186
111.223
111.277
111.353
111.459
111.604
111.799
112.05
112.357
112.697
113.015
113.192
113.141
112.445
112.695
104.833
117.907
117.383
117.452
116.762
116.006
115.287
114.657
114.107
113.624
113.2
112.829
112.507
112.229
111.988
111.78
111.6
111.443
111.306
111.187
111.081
110.988
110.905
110.831
110.764
110.704
110.65
110.6
110.556
110.515
110.479
110.447
110.418
110.392
110.37
110.352
110.336
110.324
110.316
110.31
110.307
110.307
110.311
110.317
110.325
110.336
110.349
110.364
110.381
110.4
110.42
110.441
110.464
110.487
110.511
110.535
110.56
110.585
110.61
110.634
110.658
110.682
110.706
110.728
110.75
110.772
110.793
110.812
110.831
110.85
110.867
110.883
110.899
110.914
110.928
110.941
110.953
110.965
110.976
110.986
110.996
111.004
111.013
111.02
111.028
111.034
111.041
111.046
111.052
111.057
111.061
111.065
111.069
111.073
111.076
111.079
111.082
111.084
111.087
111.089
111.091
111.093
111.094
111.096
111.097
111.099
111.1
111.101
111.102
111.103
111.104
111.104
111.105
111.106
111.106
111.107
111.107
111.108
111.108
111.108
111.109
111.109
111.109
111.109
111.109
111.11
111.11
111.11
111.11
111.11
111.11
111.11
111.11
111.111
111.111
111.111
111.111
111.111
111.111
111.111
111.111
111.111
111.111
111.111
111.111
111.111
111.111
111.111
111.111
111.111
111.111
111.111
111.111
111.111
111.111
111.111
111.111
111.111
111.111
111.111
111.111
111.111
111.111
111.111
111.111
111.111
111.111
111.111
111.111
111.111
111.111
111.111
111.111
111.111
111.111
111.111
111.111
111.111
111.111
111.111
111.111
111.111
111.111
111.111
111.111
111.111
111.111
111.111
111.111
111.111
111.111
111.111
111.111
111.111
111.111
111.111
111.111
111.111
111.111
111.111
111.111
111.111
111.111
111.111
111.111
111.111
111.111
111.111
111.111
111.111
111.111
111.111
111.111
111.111
111.111
111.111
111.111
111.111
111.111
111.111
111.111
111.111
111.111
111.111
111.111
111.111
111.111
111.111
111.111
111.111
111.111
111.111
111.111
111.111
111.111
111.111
111.111
111.111
111.111
111.111
111.111
111.111
111.111
111.111
111.111
111.111
111.111
111.111
111.111
111.111
111.111
111.111
111.111
111.111
111.111
111.111
111.111
111.111
111.111
111.111
111.111
111.111
111.111
111.111
111.111
111.111
111.111
111.111
111.111
111.111
111.111
111.111
111.111
111.111
111.111
111.111
111.111
111.111
111.111
111.111
111.111
111.111
111.111
111.111
111.111
111.111
111.111
111.111
111.111
111.111
111.111
111.111
111.111
111.111
111.111
111.111
111.111
111.111
111.111
111.111
111.111
111.111
111.111
111.111
111.111
111.111
111.111
111.111
111.111
111.111
111.111
111.111
111.111
111.111
111.111
111.111
111.111
111.111
111.111
111.111
111.111
111.111
111.111
111.111
111.111
111.111
111.111
111.111
111.111
111.111
111.111
111.111
111.111
111.111
111.111
111.111
111.111
111.111
111.111
111.111
111.111
111.111
111.111
111.111
111.111
111.111
111.111
111.111
111.111
111.111
111.111
111.111
111.111
111.111
111.111
111.111
111.111
111.111
111.111
111.111
111.111
111.111
111.111
111.111
111.111
111.111
111.111
111.111
111.111
111.111
111.111
111.111
111.111
111.111
111.111
111.111
111.111
111.111
111.111
111.111
111.111
111.111
111.111
111.111
111.111
111.111
111.111
111.111
111.111
111.111
111.111
111.111
111.111
111.111
111.111
111.111
111.111
111.111
111.111
111.111
111.111
111.111
111.111
111.111
111.111
111.111
111.111
111.111
111.111
111.111
111.111
111.111
111.111
111.111
111.111
111.111
111.111
111.111
111.111
111.111
111.111
111.111
111.111
111.111
111.111
111.111
111.111
111.111
111.111
111.111
111.111
111.111
111.111
111.111
111.111
111.111
111.111
111.111
111.111
111.111
111.111
111.111
111.111
111.111
111.111
111.111
111.111
111.111
111.111
111.111
111.111
111.111
111.111
111.111
111.111
111.111
111.111
111.111
111.111
111.111
111.111
111.111
111.111
111.111
111.111
111.111
111.111
111.111
111.111
111.111
111.111
111.111
111.111
111.111
111.111
111.111
111.111
111.111
111.111
111.111
111.111
111.111
111.111
111.111
111.111
111.111
111.111
111.111
111.111
111.111
111.111
111.111
111.111
111.111
111.111
111.111
111.111
111.111
111.111
111.111
111.111
111.111
111.111
111.111
111.111
111.111
111.111
111.111
111.111
111.111
111.111
111.111
111.111
111.111
111.111
111.111
111.111
111.111
111.111
111.111
111.111
111.111
111.111
111.111
111.111
111.111
111.111
111.111
111.111
111.111
111.111
111.111
111.111
111.111
111.111
111.111
111.111
111.111
111.111
111.111
111.111
111.111
111.111
111.111
111.111
111.111
111.111
111.111
111.111
111.111
111.111
111.111
111.111
111.111
111.111
111.111
111.111
111.111
111.111
111.111
111.111
111.111
111.111
111.111
111.111
111.111
111.11
111.11
111.11
111.11
111.11
111.11
111.11
111.11
111.11
111.111
111.112
111.113
111.116
111.119
111.125
111.134
111.147
111.166
111.194
111.234
111.291
111.372
111.486
111.646
111.865
112.162
112.553
113.046
113.627
114.241
114.743
115.024
114.261
115.129
101.577
116.897
116.959
117.46
117.113
116.523
115.844
115.188
114.591
114.055
113.574
113.145
112.764
112.427
112.13
111.868
111.637
111.433
111.253
111.092
110.949
110.82
110.704
110.6
110.505
110.419
110.34
110.269
110.204
110.145
110.091
110.043
110.001
109.963
109.931
109.903
109.881
109.863
109.85
109.842
109.839
109.84
109.845
109.855
109.868
109.885
109.906
109.929
109.956
109.985
110.016
110.049
110.084
110.12
110.157
110.195
110.233
110.271
110.31
110.348
110.385
110.423
110.459
110.494
110.529
110.562
110.595
110.626
110.656
110.684
110.712
110.738
110.762
110.786
110.808
110.829
110.849
110.868
110.885
110.902
110.917
110.931
110.945
110.958
110.969
110.98
110.991
111
111.009
111.017
111.025
111.032
111.038
111.044
111.05
111.055
111.06
111.064
111.068
111.072
111.075
111.078
111.081
111.084
111.086
111.088
111.091
111.092
111.094
111.096
111.097
111.098
111.1
111.101
111.102
111.103
111.103
111.104
111.105
111.106
111.106
111.107
111.107
111.107
111.108
111.108
111.108
111.109
111.109
111.109
111.109
111.11
111.11
111.11
111.11
111.11
111.11
111.11
111.11
111.111
111.111
111.111
111.111
111.111
111.111
111.111
111.111
111.111
111.111
111.111
111.111
111.111
111.111
111.111
111.111
111.111
111.111
111.111
111.111
111.111
111.111
111.111
111.111
111.111
111.111
111.111
111.111
111.111
111.111
111.111
111.111
111.111
111.111
111.111
111.111
111.111
111.111
111.111
111.111
111.111
111.111
111.111
111.111
111.111
111.111
111.111
111.111
111.111
111.111
111.111
111.111
111.111
111.111
111.111
111.111
111.111
111.111
111.111
111.111
111.111
111.111
111.111
111.111
111.111
111.111
111.111
111.111
111.111
111.111
111.111
111.111
111.111
111.111
111.111
111.111
111.111
111.111
111.111
111.111
111.111
111.111
111.111
111.111
111.111
111.111
111.111
111.111
111.111
111.111
111.111
111.111
111.111
111.111
111.111
111.111
111.111
111.111
111.111
111.111
111.111
111.111
111.111
111.111
111.111
111.111
111.111
111.111
111.111
111.111
111.111
111.111
111.111
111.111
111.111
111.111
111.111
111.111
111.111
111.111
111.111
111.111
111.111
111.111
111.111
111.111
111.111
111.111
111.111
111.111
111.111
111.111
111.111
111.111
111.111
111.111
111.111
111.111
111.111
111.111
111.111
111.111
111.111
111.111
111.111
111.111
111.111
111.111
111.111
111.111
111.111
111.111
111.111
111.111
111.111
111.111
111.111
111.111
111.111
111.111
111.111
111.111
111.111
111.111
111.111
111.111
111.111
111.111
111.111
111.111
111.111
111.111
111.111
111.111
111.111
111.111
111.111
111.111
111.111
111.111
111.111
111.111
111.111
111.111
111.111
111.111
111.111
111.111
111.111
111.111
111.111
111.111
111.111
111.111
111.111
111.111
111.111
111.111
111.111
111.111
111.111
111.111
111.111
111.111
111.111
111.111
111.111
111.111
111.111
111.111
111.111
111.111
111.111
111.111
111.111
111.111
111.111
111.111
111.111
111.111
111.111
111.111
111.111
111.111
111.111
111.111
111.111
111.111
111.111
111.111
111.111
111.111
111.111
111.111
111.111
111.111
111.111
111.111
111.111
111.111
111.111
111.111
111.111
111.111
111.111
111.111
111.111
111.111
111.111
111.111
111.111
111.111
111.111
111.111
111.111
111.111
111.111
111.111
111.111
111.111
111.111
111.111
111.111
111.111
111.111
111.111
111.111
111.111
111.111
111.111
111.111
111.111
111.111
111.111
111.111
111.111
111.111
111.111
111.111
111.111
111.111
111.111
111.111
111.111
111.111
111.111
111.111
111.111
111.111
111.111
111.111
111.111
111.111
111.111
111.111
111.111
111.111
111.111
111.111
111.111
111.111
111.111
111.111
111.111
111.111
111.111
111.111
111.111
111.111
111.111
111.111
111.111
111.111
111.111
111.111
111.111
111.111
111.111
111.111
111.111
111.111
111.111
111.111
111.111
111.111
111.111
111.111
111.111
111.111
111.111
111.111
111.111
111.111
111.111
111.111
111.111
111.111
111.111
111.111
111.111
111.111
111.111
111.111
111.111
111.111
111.111
111.111
111.111
111.111
111.111
111.111
111.111
111.111
111.111
111.111
111.111
111.111
111.111
111.111
111.111
111.111
111.111
111.111
111.111
111.111
111.111
111.111
111.111
111.111
111.111
111.111
111.111
111.111
111.111
111.111
111.111
111.111
111.111
111.111
111.111
111.111
111.111
111.111
111.111
111.111
111.111
111.111
111.111
111.111
111.111
111.111
111.111
111.111
111.111
111.111
111.111
111.111
111.111
111.111
111.111
111.111
111.111
111.111
111.111
111.111
111.111
111.111
111.111
111.111
111.111
111.111
111.111
111.111
111.111
111.111
111.111
111.111
111.111
111.111
111.111
111.111
111.111
111.111
111.111
111.111
111.111
111.11
111.11
111.11
111.11
111.11
111.11
111.11
111.11
111.11
111.11
111.111
111.112
111.114
111.118
111.123
111.13
111.141
111.158
111.182
111.217
111.267
111.339
111.442
111.587
111.791
112.073
112.458
112.971
113.636
114.453
115.391
116.297
117.064
116.404
118.005
99.3774
115.96
116.367
117.154
117.14
116.795
116.251
115.645
115.047
114.486
113.971
113.501
113.075
112.69
112.344
112.033
111.755
111.506
111.282
111.08
110.898
110.733
110.584
110.447
110.322
110.208
110.104
110.008
109.921
109.841
109.769
109.704
109.646
109.595
109.551
109.514
109.483
109.459
109.441
109.43
109.425
109.426
109.432
109.445
109.462
109.485
109.512
109.543
109.578
109.617
109.658
109.702
109.748
109.796
109.845
109.895
109.946
109.997
110.048
110.098
110.148
110.198
110.246
110.293
110.339
110.383
110.426
110.467
110.506
110.544
110.581
110.615
110.648
110.679
110.708
110.736
110.762
110.787
110.81
110.832
110.853
110.872
110.89
110.907
110.922
110.937
110.95
110.963
110.975
110.985