/*--------------------------------*- C++ -*----------------------------------*\
  =========                 |
  \\      /  F ield         | OpenFOAM: The Open Source CFD Toolbox
   \\    /   O peration     | Website:  https://openfoam.org
    \\  /    A nd           | Version:  9
     \\/     M anipulation  |
\*---------------------------------------------------------------------------*/
FoamFile
{
    format      ascii;
    class       volScalarField;
    location    "0.5";
    object      f_3;
}
// * * * * * * * * * * * * * * * * * * * * * * * * * * * * * * * * * * * * * //

dimensions      [1 -3 0 0 0 0 0];

internalField   nonuniform List<scalar> 
120000
(
95.4526
94.8474
97.5985
99.506
101.302
102.83
104.13
105.223
106.139
106.905
107.544
108.078
108.524
108.899
109.214
109.48
109.707
109.9
110.065
110.208
110.332
110.44
110.534
110.617
110.69
110.754
110.811
110.861
110.904
110.942
110.975
111.004
111.028
111.049
111.066
111.08
111.09
111.099
111.104
111.108
111.109
111.109
111.107
111.104
111.1
111.095
111.089
111.083
111.077
111.07
111.063
111.056
111.05
111.044
111.038
111.032
111.027
111.022
111.018
111.015
111.012
111.009
111.007
111.006
111.005
111.005
111.005
111.005
111.006
111.007
111.009
111.011
111.013
111.015
111.018
111.021
111.024
111.027
111.03
111.033
111.036
111.039
111.042
111.045
111.048
111.052
111.055
111.057
111.06
111.063
111.066
111.068
111.071
111.073
111.076
111.078
111.08
111.082
111.084
111.086
111.087
111.089
111.09
111.092
111.093
111.094
111.096
111.097
111.098
111.099
111.1
111.101
111.101
111.102
111.103
111.104
111.104
111.105
111.105
111.106
111.106
111.107
111.107
111.107
111.108
111.108
111.108
111.108
111.109
111.109
111.109
111.109
111.109
111.11
111.11
111.11
111.11
111.11
111.11
111.11
111.11
111.11
111.111
111.111
111.111
111.111
111.111
111.111
111.111
111.111
111.111
111.111
111.111
111.111
111.111
111.111
111.111
111.111
111.111
111.111
111.111
111.111
111.111
111.111
111.111
111.111
111.111
111.111
111.111
111.111
111.111
111.111
111.111
111.111
111.111
111.111
111.111
111.111
111.111
111.111
111.111
111.111
111.111
111.111
111.111
111.111
111.111
111.111
111.111
111.111
111.111
111.111
111.111
111.111
111.111
111.111
111.111
111.111
111.111
111.111
111.111
111.111
111.111
111.111
111.111
111.111
111.111
111.111
111.111
111.111
111.111
111.111
111.111
111.111
111.111
111.111
111.111
111.111
111.111
111.111
111.111
111.111
111.111
111.111
111.111
111.111
111.111
111.111
111.111
111.111
111.111
111.111
111.111
111.111
111.111
111.111
111.111
111.111
111.111
111.111
111.111
111.111
111.111
111.111
111.111
111.111
111.111
111.111
111.111
111.111
111.111
111.111
111.111
111.111
111.111
111.111
111.111
111.111
111.111
111.111
111.111
111.111
111.111
111.111
111.111
111.111
111.111
111.111
111.111
111.111
111.111
111.111
111.111
111.111
111.111
111.111
111.111
111.111
111.111
111.111
111.111
111.111
111.111
111.111
111.111
111.111
111.111
111.111
111.111
111.111
111.111
111.111
111.111
111.111
111.111
111.111
111.111
111.111
111.111
111.111
111.111
111.111
111.111
111.111
111.111
111.111
111.111
111.111
111.111
111.111
111.111
111.111
111.111
111.111
111.111
111.111
111.111
111.111
111.111
111.111
111.111
111.111
111.111
111.111
111.111
111.111
111.111
111.111
111.111
111.111
111.111
111.111
111.111
111.111
111.111
111.111
111.111
111.111
111.111
111.111
111.111
111.111
111.111
111.111
111.111
111.111
111.111
111.111
111.111
111.111
111.111
111.111
111.111
111.111
111.111
111.111
111.111
111.111
111.111
111.111
111.111
111.111
111.111
111.111
111.111
111.111
111.111
111.111
111.111
111.111
111.111
111.111
111.111
111.111
111.111
111.111
111.111
111.111
111.111
111.111
111.111
111.111
111.111
111.111
111.111
111.111
111.111
111.111
111.111
111.111
111.111
111.111
111.111
111.111
111.111
111.111
111.111
111.111
111.111
111.111
111.111
111.111
111.111
111.111
111.111
111.111
111.111
111.111
111.111
111.111
111.111
111.111
111.111
111.111
111.111
111.111
111.111
111.111
111.111
111.111
111.111
111.111
111.111
111.111
111.111
111.111
111.111
111.111
111.111
111.111
111.111
111.111
111.111
111.111
111.111
111.111
111.111
111.111
111.111
111.111
111.111
111.111
111.111
111.111
111.111
111.111
111.111
111.111
111.111
111.111
111.111
111.111
111.111
111.111
111.111
111.111
111.111
111.111
111.111
111.111
111.111
111.111
111.111
111.111
111.111
111.111
111.111
111.111
111.111
111.111
111.111
111.111
111.111
111.111
111.111
111.111
111.111
111.111
111.111
111.111
111.111
111.111
111.111
111.111
111.111
111.111
111.111
111.111
111.111
111.111
111.111
111.111
111.111
111.111
111.111
111.111
111.111
111.111
111.111
111.111
111.111
111.111
111.111
111.111
111.111
111.111
111.111
111.111
111.111
111.111
111.111
111.111
111.111
111.111
111.111
111.111
111.111
111.111
111.111
111.111
111.111
111.111
111.111
111.111
111.111
111.111
111.111
111.111
111.111
111.111
111.111
111.111
111.111
111.111
111.111
111.111
111.111
111.111
111.111
111.111
111.111
111.111
111.111
111.111
111.111
111.111
111.111
111.111
111.111
111.111
111.111
111.111
111.11
111.11
111.11
111.11
111.11
111.109
111.109
111.109
111.108
111.107
111.106
111.105
111.104
111.102
111.1
111.098
111.095
111.092
111.088
111.084
111.078
111.072
111.065
111.056
111.047
111.037
111.026
111.015
111.005
110.996
110.991
110.992
111.002
111.026
111.071
111.146
111.259
111.42
111.639
111.913
112.224
112.522
112.714
112.654
112.16
111.069
109.338
107.155
92.0253
92.5808
95.0116
96.7192
98.2419
99.5405
100.667
101.642
102.487
103.221
103.861
104.421
104.912
105.347
105.733
106.076
106.385
106.662
106.913
107.141
107.348
107.537
107.711
107.87
108.016
108.151
108.276
108.39
108.496
108.594
108.685
108.769
108.847
108.919
108.987
109.049
109.108
109.163
109.215
109.264
109.311
109.355
109.398
109.44
109.48
109.519
109.558
109.597
109.635
109.673
109.711
109.75
109.788
109.826
109.865
109.904
109.942
109.981
110.02
110.059
110.098
110.137
110.175
110.213
110.25
110.287
110.324
110.36
110.395
110.429
110.463
110.495
110.527
110.558
110.587
110.616
110.643
110.67
110.696
110.72
110.743
110.766
110.787
110.807
110.827
110.845
110.862
110.879
110.894
110.909
110.923
110.936
110.948
110.96
110.971
110.981
110.991
111
111.008
111.016
111.023
111.03
111.036
111.042
111.047
111.053
111.057
111.062
111.066
111.069
111.073
111.076
111.079
111.082
111.084
111.087
111.089
111.091
111.093
111.094
111.096
111.097
111.098
111.1
111.101
111.102
111.103
111.103
111.104
111.105
111.105
111.106
111.106
111.107
111.107
111.108
111.108
111.108
111.109
111.109
111.109
111.109
111.11
111.11
111.11
111.11
111.11
111.11
111.11
111.11
111.11
111.111
111.111
111.111
111.111
111.111
111.111
111.111
111.111
111.111
111.111
111.111
111.111
111.111
111.111
111.111
111.111
111.111
111.111
111.111
111.111
111.111
111.111
111.111
111.111
111.111
111.111
111.111
111.111
111.111
111.111
111.111
111.111
111.111
111.111
111.111
111.111
111.111
111.111
111.111
111.111
111.111
111.111
111.111
111.111
111.111
111.111
111.111
111.111
111.111
111.111
111.111
111.111
111.111
111.111
111.111
111.111
111.111
111.111
111.111
111.111
111.111
111.111
111.111
111.111
111.111
111.111
111.111
111.111
111.111
111.111
111.111
111.111
111.111
111.111
111.111
111.111
111.111
111.111
111.111
111.111
111.111
111.111
111.111
111.111
111.111
111.111
111.111
111.111
111.111
111.111
111.111
111.111
111.111
111.111
111.111
111.111
111.111
111.111
111.111
111.111
111.111
111.111
111.111
111.111
111.111
111.111
111.111
111.111
111.111
111.111
111.111
111.111
111.111
111.111
111.111
111.111
111.111
111.111
111.111
111.111
111.111
111.111
111.111
111.111
111.111
111.111
111.111
111.111
111.111
111.111
111.111
111.111
111.111
111.111
111.111
111.111
111.111
111.111
111.111
111.111
111.111
111.111
111.111
111.111
111.111
111.111
111.111
111.111
111.111
111.111
111.111
111.111
111.111
111.111
111.111
111.111
111.111
111.111
111.111
111.111
111.111
111.111
111.111
111.111
111.111
111.111
111.111
111.111
111.111
111.111
111.111
111.111
111.111
111.111
111.111
111.111
111.111
111.111
111.111
111.111
111.111
111.111
111.111
111.111
111.111
111.111
111.111
111.111
111.111
111.111
111.111
111.111
111.111
111.111
111.111
111.111
111.111
111.111
111.111
111.111
111.111
111.111
111.111
111.111
111.111
111.111
111.111
111.111
111.111
111.111
111.111
111.111
111.111
111.111
111.111
111.111
111.111
111.111
111.111
111.111
111.111
111.111
111.111
111.111
111.111
111.111
111.111
111.111
111.111
111.111
111.111
111.111
111.111
111.111
111.111
111.111
111.111
111.111
111.111
111.111
111.111
111.111
111.111
111.111
111.111
111.111
111.111
111.111
111.111
111.111
111.111
111.111
111.111
111.111
111.111
111.111
111.111
111.111
111.111
111.111
111.111
111.111
111.111
111.111
111.111
111.111
111.111
111.111
111.111
111.111
111.111
111.111
111.111
111.111
111.111
111.111
111.111
111.111
111.111
111.111
111.111
111.111
111.111
111.111
111.111
111.111
111.111
111.111
111.111
111.111
111.111
111.111
111.111
111.111
111.111
111.111
111.111
111.111
111.111
111.111
111.111
111.111
111.111
111.111
111.111
111.111
111.111
111.111
111.111
111.111
111.111
111.111
111.111
111.111
111.111
111.111
111.111
111.111
111.111
111.111
111.111
111.111
111.111
111.111
111.111
111.111
111.111
111.111
111.111
111.111
111.111
111.111
111.111
111.111
111.111
111.111
111.111
111.111
111.111
111.111
111.111
111.111
111.111
111.111
111.111
111.111
111.111
111.111
111.111
111.111
111.111
111.111
111.111
111.111
111.111
111.111
111.111
111.111
111.111
111.111
111.111
111.111
111.111
111.111
111.111
111.111
111.111
111.111
111.111
111.111
111.111
111.111
111.111
111.111
111.111
111.111
111.111
111.111
111.111
111.111
111.111
111.111
111.111
111.111
111.111
111.111
111.111
111.111
111.111
111.111
111.111
111.111
111.111
111.111
111.111
111.111
111.111
111.111
111.111
111.111
111.111
111.11
111.11
111.11
111.11
111.11
111.109
111.109
111.108
111.107
111.107
111.106
111.104
111.103
111.101
111.099
111.096
111.093
111.088
111.084
111.078
111.071
111.062
111.053
111.041
111.028
111.013
110.997
110.98
110.962
110.945
110.932
110.926
110.933
110.961
111.024
111.139
111.332
111.637
112.101
112.777
113.722
114.977
116.548
118.365
120.27
122.051
123.417
124.384
86.6959
88.0446
89.7635
91.3686
92.8717
94.2382
95.4827
96.6126
97.6352
98.5578
99.3885
100.136
100.809
101.416
101.964
102.461
102.911
103.321
103.695
104.038
104.351
104.64
104.906
105.151
105.378
105.589
105.784
105.966
106.135
106.292
106.44
106.578
106.708
106.83
106.945
107.054
107.158
107.257
107.352
107.444
107.532
107.619
107.704
107.787
107.869
107.95
108.031
108.111
108.192
108.273
108.353
108.434
108.515
108.596
108.678
108.759
108.84
108.921
109.002
109.082
109.162
109.241
109.319
109.396
109.471
109.546
109.618
109.689
109.759
109.826
109.892
109.956
110.017
110.077
110.134
110.189
110.242
110.293
110.342
110.388
110.432
110.475
110.515
110.553
110.589
110.624
110.656
110.687
110.716
110.743
110.769
110.793
110.816
110.837
110.857
110.876
110.893
110.91
110.925
110.939
110.953
110.965
110.976
110.987
110.997
111.006
111.015
111.023
111.03
111.037
111.043
111.049
111.054
111.059
111.064
111.068
111.072
111.075
111.078
111.081
111.084
111.086
111.089
111.091
111.093
111.094
111.096
111.098
111.099
111.1
111.101
111.102
111.103
111.104
111.105
111.105
111.106
111.106
111.107
111.107
111.108
111.108
111.108
111.109
111.109
111.109
111.109
111.11
111.11
111.11
111.11
111.11
111.11
111.11
111.11
111.111
111.111
111.111
111.111
111.111
111.111
111.111
111.111
111.111
111.111
111.111
111.111
111.111
111.111
111.111
111.111
111.111
111.111
111.111
111.111
111.111
111.111
111.111
111.111
111.111
111.111
111.111
111.111
111.111
111.111
111.111
111.111
111.111
111.111
111.111
111.111
111.111
111.111
111.111
111.111
111.111
111.111
111.111
111.111
111.111
111.111
111.111
111.111
111.111
111.111
111.111
111.111
111.111
111.111
111.111
111.111
111.111
111.111
111.111
111.111
111.111
111.111
111.111
111.111
111.111
111.111
111.111
111.111
111.111
111.111
111.111
111.111
111.111
111.111
111.111
111.111
111.111
111.111
111.111
111.111
111.111
111.111
111.111
111.111
111.111
111.111
111.111
111.111
111.111
111.111
111.111
111.111
111.111
111.111
111.111
111.111
111.111
111.111
111.111
111.111
111.111
111.111
111.111
111.111
111.111
111.111
111.111
111.111
111.111
111.111
111.111
111.111
111.111
111.111
111.111
111.111
111.111
111.111
111.111
111.111
111.111
111.111
111.111
111.111
111.111
111.111
111.111
111.111
111.111
111.111
111.111
111.111
111.111
111.111
111.111
111.111
111.111
111.111
111.111
111.111
111.111
111.111
111.111
111.111
111.111
111.111
111.111
111.111
111.111
111.111
111.111
111.111
111.111
111.111
111.111
111.111
111.111
111.111
111.111
111.111
111.111
111.111
111.111
111.111
111.111
111.111
111.111
111.111
111.111
111.111
111.111
111.111
111.111
111.111
111.111
111.111
111.111
111.111
111.111
111.111
111.111
111.111
111.111
111.111
111.111
111.111
111.111
111.111
111.111
111.111
111.111
111.111
111.111
111.111
111.111
111.111
111.111
111.111
111.111
111.111
111.111
111.111
111.111
111.111
111.111
111.111
111.111
111.111
111.111
111.111
111.111
111.111
111.111
111.111
111.111
111.111
111.111
111.111
111.111
111.111
111.111
111.111
111.111
111.111
111.111
111.111
111.111
111.111
111.111
111.111
111.111
111.111
111.111
111.111
111.111
111.111
111.111
111.111
111.111
111.111
111.111
111.111
111.111
111.111
111.111
111.111
111.111
111.111
111.111
111.111
111.111
111.111
111.111
111.111
111.111
111.111
111.111
111.111
111.111
111.111
111.111
111.111
111.111
111.111
111.111
111.111
111.111
111.111
111.111
111.111
111.111
111.111
111.111
111.111
111.111
111.111
111.111
111.111
111.111
111.111
111.111
111.111
111.111
111.111
111.111
111.111
111.111
111.111
111.111
111.111
111.111
111.111
111.111
111.111
111.111
111.111
111.111
111.111
111.111
111.111
111.111
111.111
111.111
111.111
111.111
111.111
111.111
111.111
111.111
111.111
111.111
111.111
111.111
111.111
111.111
111.111
111.111
111.111
111.111
111.111
111.111
111.111
111.111
111.111
111.111
111.111
111.111
111.111
111.111
111.111
111.111
111.111
111.111
111.111
111.111
111.111
111.111
111.111
111.111
111.111
111.111
111.111
111.111
111.111
111.111
111.111
111.111
111.111
111.111
111.111
111.111
111.111
111.111
111.111
111.111
111.111
111.111
111.111
111.111
111.111
111.111
111.111
111.111
111.111
111.111
111.111
111.111
111.111
111.111
111.111
111.111
111.111
111.111
111.111
111.111
111.111
111.111
111.111
111.111
111.111
111.111
111.111
111.111
111.111
111.111
111.111
111.111
111.111
111.111
111.111
111.111
111.111
111.111
111.111
111.111
111.111
111.11
111.11
111.11
111.11
111.109
111.109
111.109
111.108
111.107
111.106
111.105
111.104
111.102
111.1
111.098
111.095
111.091
111.087
111.082
111.075
111.068
111.059
111.048
111.035
111.02
111.003
110.984
110.963
110.94
110.917
110.894
110.876
110.867
110.874
110.908
110.986
111.132
111.379
111.776
112.388
113.303
114.626
116.476
118.963
122.147
125.989
130.309
134.59
138.428
85.0602
85.88
87.0354
88.2858
89.5665
90.7953
91.9559
93.0432
94.0576
94.9996
95.8709
96.6744
97.4141
98.0948
98.7211
99.2977
99.8292
100.32
100.773
101.193
101.582
101.943
102.28
102.593
102.886
103.159
103.415
103.655
103.881
104.093
104.293
104.483
104.663
104.833
104.996
105.152
105.302
105.447
105.587
105.723
105.856
105.987
106.115
106.242
106.368
106.492
106.617
106.741
106.865
106.989
107.113
107.236
107.36
107.484
107.608
107.731
107.854
107.976
108.097
108.216
108.335
108.452
108.567
108.68
108.791
108.9
109.006
109.109
109.21
109.308
109.402
109.494
109.582
109.667
109.749
109.828
109.903
109.975
110.044
110.11
110.172
110.232
110.288
110.342
110.392
110.44
110.486
110.529
110.569
110.607
110.643
110.676
110.708
110.737
110.765
110.791
110.815
110.837
110.858
110.878
110.896
110.913
110.929
110.943
110.957
110.97
110.981
110.992
111.002
111.011
111.02
111.027
111.035
111.041
111.047
111.053
111.058
111.063
111.067
111.071
111.075
111.078
111.081
111.084
111.087
111.089
111.091
111.093
111.095
111.096
111.098
111.099
111.1
111.101
111.102
111.103
111.104
111.105
111.106
111.106
111.107
111.107
111.108
111.108
111.108
111.109
111.109
111.109
111.109
111.11
111.11
111.11
111.11
111.11
111.11
111.11
111.11
111.111
111.111
111.111
111.111
111.111
111.111
111.111
111.111
111.111
111.111
111.111
111.111
111.111
111.111
111.111
111.111
111.111
111.111
111.111
111.111
111.111
111.111
111.111
111.111
111.111
111.111
111.111
111.111
111.111
111.111
111.111
111.111
111.111
111.111
111.111
111.111
111.111
111.111
111.111
111.111
111.111
111.111
111.111
111.111
111.111
111.111
111.111
111.111
111.111
111.111
111.111
111.111
111.111
111.111
111.111
111.111
111.111
111.111
111.111
111.111
111.111
111.111
111.111
111.111
111.111
111.111
111.111
111.111
111.111
111.111
111.111
111.111
111.111
111.111
111.111
111.111
111.111
111.111
111.111
111.111
111.111
111.111
111.111
111.111
111.111
111.111
111.111
111.111
111.111
111.111
111.111
111.111
111.111
111.111
111.111
111.111
111.111
111.111
111.111
111.111
111.111
111.111
111.111
111.111
111.111
111.111
111.111
111.111
111.111
111.111
111.111
111.111
111.111
111.111
111.111
111.111
111.111
111.111
111.111
111.111
111.111
111.111
111.111
111.111
111.111
111.111
111.111
111.111
111.111
111.111
111.111
111.111
111.111
111.111
111.111
111.111
111.111
111.111
111.111
111.111
111.111
111.111
111.111
111.111
111.111
111.111
111.111
111.111
111.111
111.111
111.111
111.111
111.111
111.111
111.111
111.111
111.111
111.111
111.111
111.111
111.111
111.111
111.111
111.111
111.111
111.111
111.111
111.111
111.111
111.111
111.111
111.111
111.111
111.111
111.111
111.111
111.111
111.111
111.111
111.111
111.111
111.111
111.111
111.111
111.111
111.111
111.111
111.111
111.111
111.111
111.111
111.111
111.111
111.111
111.111
111.111
111.111
111.111
111.111
111.111
111.111
111.111
111.111
111.111
111.111
111.111
111.111
111.111
111.111
111.111
111.111
111.111
111.111
111.111
111.111
111.111
111.111
111.111
111.111
111.111
111.111
111.111
111.111
111.111
111.111
111.111
111.111
111.111
111.111
111.111
111.111
111.111
111.111
111.111
111.111
111.111
111.111
111.111
111.111
111.111
111.111
111.111
111.111
111.111
111.111
111.111
111.111
111.111
111.111
111.111
111.111
111.111
111.111
111.111
111.111
111.111
111.111
111.111
111.111
111.111
111.111
111.111
111.111
111.111
111.111
111.111
111.111
111.111
111.111
111.111
111.111
111.111
111.111
111.111
111.111
111.111
111.111
111.111
111.111
111.111
111.111
111.111
111.111
111.111
111.111
111.111
111.111
111.111
111.111
111.111
111.111
111.111
111.111
111.111
111.111
111.111
111.111
111.111
111.111
111.111
111.111
111.111
111.111
111.111
111.111
111.111
111.111
111.111
111.111
111.111
111.111
111.111
111.111
111.111
111.111
111.111
111.111
111.111
111.111
111.111
111.111
111.111
111.111
111.111
111.111
111.111
111.111
111.111
111.111
111.111
111.111
111.111
111.111
111.111
111.111
111.111
111.111
111.111
111.111
111.111
111.111
111.111
111.111
111.111
111.111
111.111
111.111
111.111
111.111
111.111
111.111
111.111
111.111
111.111
111.111
111.111
111.111
111.111
111.111
111.111
111.111
111.111
111.111
111.111
111.111
111.111
111.111
111.111
111.111
111.111
111.111
111.111
111.111
111.111
111.111
111.111
111.111
111.111
111.111
111.111
111.111
111.111
111.111
111.111
111.111
111.111
111.111
111.111
111.111
111.111
111.111
111.111
111.111
111.11
111.11
111.11
111.11
111.11
111.109
111.109
111.108
111.108
111.107
111.106
111.104
111.103
111.101
111.099
111.096
111.093
111.088
111.083
111.077
111.07
111.061
111.05
111.037
111.022
111.004
110.983
110.96
110.932
110.903
110.871
110.838
110.808
110.785
110.776
110.792
110.851
110.979
111.214
111.609
112.243
113.223
114.694
116.839
119.871
123.986
129.277
135.608
142.251
148.376
84.2013
84.6272
85.3214
86.1742
87.1574
88.1791
89.1951
90.1816
91.1292
92.0329
92.8897
93.6979
94.4575
95.1694
95.8355
96.4582
97.0402
97.5841
98.0928
98.5688
99.0146
99.4325
99.8248
100.193
100.54
100.867
101.176
101.467
101.744
102.006
102.255
102.492
102.719
102.936
103.145
103.347
103.541
103.731
103.915
104.096
104.273
104.447
104.619
104.789
104.959
105.127
105.294
105.461
105.628
105.795
105.961
106.127
106.293
106.458
106.622
106.786
106.948
107.11
107.269
107.427
107.582
107.735
107.885
108.032
108.176
108.317
108.454
108.588
108.717
108.842
108.964
109.081
109.194
109.302
109.406
109.506
109.602
109.693
109.78
109.863
109.942
110.017
110.088
110.156
110.22
110.28
110.337
110.39
110.441
110.488
110.533
110.574
110.614
110.65
110.685
110.717
110.747
110.775
110.801
110.825
110.847
110.868
110.888
110.906
110.923
110.938
110.952
110.966
110.978
110.989
111
111.009
111.018
111.026
111.034
111.041
111.047
111.053
111.058
111.063
111.067
111.071
111.075
111.078
111.082
111.084
111.087
111.089
111.091
111.093
111.095
111.097
111.098
111.1
111.101
111.102
111.103
111.104
111.104
111.105
111.106
111.106
111.107
111.107
111.108
111.108
111.108
111.109
111.109
111.109
111.109
111.11
111.11
111.11
111.11
111.11
111.11
111.11
111.111
111.111
111.111
111.111
111.111
111.111
111.111
111.111
111.111
111.111
111.111
111.111
111.111
111.111
111.111
111.111
111.111
111.111
111.111
111.111
111.111
111.111
111.111
111.111
111.111
111.111
111.111
111.111
111.111
111.111
111.111
111.111
111.111
111.111
111.111
111.111
111.111
111.111
111.111
111.111
111.111
111.111
111.111
111.111
111.111
111.111
111.111
111.111
111.111
111.111
111.111
111.111
111.111
111.111
111.111
111.111
111.111
111.111
111.111
111.111
111.111
111.111
111.111
111.111
111.111
111.111
111.111
111.111
111.111
111.111
111.111
111.111
111.111
111.111
111.111
111.111
111.111
111.111
111.111
111.111
111.111
111.111
111.111
111.111
111.111
111.111
111.111
111.111
111.111
111.111
111.111
111.111
111.111
111.111
111.111
111.111
111.111
111.111
111.111
111.111
111.111
111.111
111.111
111.111
111.111
111.111
111.111
111.111
111.111
111.111
111.111
111.111
111.111
111.111
111.111
111.111
111.111
111.111
111.111
111.111
111.111
111.111
111.111
111.111
111.111
111.111
111.111
111.111
111.111
111.111
111.111
111.111
111.111
111.111
111.111
111.111
111.111
111.111
111.111
111.111
111.111
111.111
111.111
111.111
111.111
111.111
111.111
111.111
111.111
111.111
111.111
111.111
111.111
111.111
111.111
111.111
111.111
111.111
111.111
111.111
111.111
111.111
111.111
111.111
111.111
111.111
111.111
111.111
111.111
111.111
111.111
111.111
111.111
111.111
111.111
111.111
111.111
111.111
111.111
111.111
111.111
111.111
111.111
111.111
111.111
111.111
111.111
111.111
111.111
111.111
111.111
111.111
111.111
111.111
111.111
111.111
111.111
111.111
111.111
111.111
111.111
111.111
111.111
111.111
111.111
111.111
111.111
111.111
111.111
111.111
111.111
111.111
111.111
111.111
111.111
111.111
111.111
111.111
111.111
111.111
111.111
111.111
111.111
111.111
111.111
111.111
111.111
111.111
111.111
111.111
111.111
111.111
111.111
111.111
111.111
111.111
111.111
111.111
111.111
111.111
111.111
111.111
111.111
111.111
111.111
111.111
111.111
111.111
111.111
111.111
111.111
111.111
111.111
111.111
111.111
111.111
111.111
111.111
111.111
111.111
111.111
111.111
111.111
111.111
111.111
111.111
111.111
111.111
111.111
111.111
111.111
111.111
111.111
111.111
111.111
111.111
111.111
111.111
111.111
111.111
111.111
111.111
111.111
111.111
111.111
111.111
111.111
111.111
111.111
111.111
111.111
111.111
111.111
111.111
111.111
111.111
111.111
111.111
111.111
111.111
111.111
111.111
111.111
111.111
111.111
111.111
111.111
111.111
111.111
111.111
111.111
111.111
111.111
111.111
111.111
111.111
111.111
111.111
111.111
111.111
111.111
111.111
111.111
111.111
111.111
111.111
111.111
111.111
111.111
111.111
111.111
111.111
111.111
111.111
111.111
111.111
111.111
111.111
111.111
111.111
111.111
111.111
111.111
111.111
111.111
111.111
111.111
111.111
111.111
111.111
111.111
111.111
111.111
111.111
111.111
111.111
111.111
111.111
111.111
111.111
111.111
111.111
111.111
111.111
111.111
111.111
111.111
111.111
111.111
111.111
111.111
111.111
111.111
111.111
111.111
111.111
111.111
111.111
111.111
111.111
111.111
111.111
111.111
111.111
111.111
111.111
111.111
111.111
111.111
111.111
111.111
111.111
111.11
111.11
111.11
111.11
111.109
111.109
111.109
111.108
111.107
111.106
111.105
111.104
111.102
111.1
111.098
111.094
111.091
111.086
111.08
111.073
111.065
111.055
111.042
111.028
111.01
110.989
110.964
110.935
110.901
110.862
110.819
110.772
110.723
110.675
110.633
110.607
110.61
110.665
110.804
111.076
111.55
112.331
113.561
115.438
118.206
122.127
127.379
133.894
140.963
147.647
83.7253
83.9256
84.3231
84.8472
85.5307
86.3117
87.143
87.9884
88.828
89.6506
90.4494
91.2197
91.9581
92.6628
93.3331
93.9692
94.5719
95.1423
95.6819
96.1923
96.6752
97.1323
97.5651
97.9754
98.3647
98.7345
99.0861
99.4211
99.7407
100.046
100.339
100.619
100.89
101.15
101.402
101.647
101.885
102.117
102.345
102.568
102.788
103.005
103.22
103.433
103.645
103.855
104.065
104.274
104.483
104.691
104.899
105.105
105.311
105.516
105.72
105.922
106.123
106.321
106.517
106.71
106.9
107.086
107.269
107.448
107.623
107.794
107.96
108.12
108.277
108.427
108.573
108.714
108.849
108.979
109.103
109.222
109.336
109.445
109.548
109.647
109.741
109.829
109.914
109.993
110.069
110.14
110.207
110.27
110.329
110.385
110.437
110.486
110.532
110.575
110.615
110.653
110.688
110.721
110.751
110.779
110.806
110.83
110.853
110.874
110.893
110.911
110.928
110.943
110.957
110.97
110.983
110.994
111.004
111.013
111.022
111.03
111.037
111.044
111.05
111.056
111.061
111.066
111.07
111.074
111.077
111.081
111.084
111.086
111.089
111.091
111.093
111.095
111.096
111.098
111.099
111.1
111.102
111.103
111.103
111.104
111.105
111.106
111.106
111.107
111.107
111.108
111.108
111.108
111.109
111.109
111.109
111.109
111.11
111.11
111.11
111.11
111.11
111.11
111.11
111.111
111.111
111.111
111.111
111.111
111.111
111.111
111.111
111.111
111.111
111.111
111.111
111.111
111.111
111.111
111.111
111.111
111.111
111.111
111.111
111.111
111.111
111.111
111.111
111.111
111.111
111.111
111.111
111.111
111.111
111.111
111.111
111.111
111.111
111.111
111.111
111.111
111.111
111.111
111.111
111.111
111.111
111.111
111.111
111.111
111.111
111.111
111.111
111.111
111.111
111.111
111.111
111.111
111.111
111.111
111.111
111.111
111.111
111.111
111.111
111.111
111.111
111.111
111.111
111.111
111.111
111.111
111.111
111.111
111.111
111.111
111.111
111.111
111.111
111.111
111.111
111.111
111.111
111.111
111.111
111.111
111.111
111.111
111.111
111.111
111.111
111.111
111.111
111.111
111.111
111.111
111.111
111.111
111.111
111.111
111.111
111.111
111.111
111.111
111.111
111.111
111.111
111.111
111.111
111.111
111.111
111.111
111.111
111.111
111.111
111.111
111.111
111.111
111.111
111.111
111.111
111.111
111.111
111.111
111.111
111.111
111.111
111.111
111.111
111.111
111.111
111.111
111.111
111.111
111.111
111.111
111.111
111.111
111.111
111.111
111.111
111.111
111.111
111.111
111.111
111.111
111.111
111.111
111.111
111.111
111.111
111.111
111.111
111.111
111.111
111.111
111.111
111.111
111.111
111.111
111.111
111.111
111.111
111.111
111.111
111.111
111.111
111.111
111.111
111.111
111.111
111.111
111.111
111.111
111.111
111.111
111.111
111.111
111.111
111.111
111.111
111.111
111.111
111.111
111.111
111.111
111.111
111.111
111.111
111.111
111.111
111.111
111.111
111.111
111.111
111.111
111.111
111.111
111.111
111.111
111.111
111.111
111.111
111.111
111.111
111.111
111.111
111.111
111.111
111.111
111.111
111.111
111.111
111.111
111.111
111.111
111.111
111.111
111.111
111.111
111.111
111.111
111.111
111.111
111.111
111.111
111.111
111.111
111.111
111.111
111.111
111.111
111.111
111.111
111.111
111.111
111.111
111.111
111.111
111.111
111.111
111.111
111.111
111.111
111.111
111.111
111.111
111.111
111.111
111.111
111.111
111.111
111.111
111.111
111.111
111.111
111.111
111.111
111.111
111.111
111.111
111.111
111.111
111.111
111.111
111.111
111.111
111.111
111.111
111.111
111.111
111.111
111.111
111.111
111.111
111.111
111.111
111.111
111.111
111.111
111.111
111.111
111.111
111.111
111.111
111.111
111.111
111.111
111.111
111.111
111.111
111.111
111.111
111.111
111.111
111.111
111.111
111.111
111.111
111.111
111.111
111.111
111.111
111.111
111.111
111.111
111.111
111.111
111.111
111.111
111.111
111.111
111.111
111.111
111.111
111.111
111.111
111.111
111.111
111.111
111.111
111.111
111.111
111.111
111.111
111.111
111.111
111.111
111.111
111.111
111.111
111.111
111.111
111.111
111.111
111.111
111.111
111.111
111.111
111.111
111.111
111.111
111.111
111.111
111.111
111.111
111.111
111.111
111.111
111.111
111.111
111.111
111.111
111.111
111.111
111.111
111.111
111.111
111.111
111.111
111.111
111.111
111.111
111.111
111.111
111.111
111.111
111.111
111.111
111.111
111.111
111.111
111.111
111.111
111.111
111.111
111.111
111.111
111.111
111.111
111.111
111.111
111.111
111.111
111.111
111.111
111.111
111.111
111.111
111.111
111.111
111.111
111.111
111.111
111.111
111.11
111.11
111.11
111.11
111.11
111.109
111.109
111.108
111.108
111.107
111.106
111.105
111.103
111.101
111.099
111.096
111.093
111.089
111.084
111.078
111.07
111.061
111.049
111.036
111.019
110.999
110.974
110.945
110.91
110.868
110.819
110.761
110.695
110.619
110.535
110.445
110.352
110.264
110.191
110.154
110.182
110.322
110.641
111.241
112.265
113.9
116.358
119.807
124.251
129.276
134.236
83.4161
83.5062
83.7305
84.027
84.462
85.012
85.6472
86.3328
87.0431
87.7613
88.4767
89.1821
89.872
90.5425
91.1909
91.8155
92.4154
92.9904
93.5408
94.067
94.57
95.0506
95.51
95.9491
96.3693
96.7716
97.1571
97.5272
97.8828
98.2251
98.5553
98.8743
99.1832
99.483
99.7748
100.059
100.338
100.61
100.879
101.143
101.404
101.662
101.918
102.172
102.425
102.676
102.927
103.177
103.425
103.673
103.92
104.166
104.41
104.653
104.894
105.133
105.369
105.602
105.832
106.059
106.281
106.499
106.713
106.921
107.125
107.323
107.515
107.701
107.882
108.056
108.224
108.386
108.541
108.691
108.833
108.97
109.101
109.225
109.343
109.456
109.563
109.664
109.76
109.85
109.936
110.017
110.093
110.164
110.231
110.295
110.354
110.409