/*--------------------------------*- C++ -*----------------------------------*\
  =========                 |
  \\      /  F ield         | OpenFOAM: The Open Source CFD Toolbox
   \\    /   O peration     | Website:  https://openfoam.org
    \\  /    A nd           | Version:  9
     \\/     M anipulation  |
\*---------------------------------------------------------------------------*/
FoamFile
{
    format      ascii;
    class       volScalarField;
    location    "0.5";
    object      f_5;
}
// * * * * * * * * * * * * * * * * * * * * * * * * * * * * * * * * * * * * * //

dimensions      [1 -3 0 0 0 0 0];

internalField   nonuniform List<scalar> 
120000
(
32.0415
29.1691
28.4899
28.3124
28.1713
28.0244
27.8952
27.7943
27.7196
27.6661
27.629
27.6045
27.5898
27.5828
27.5816
27.5848
27.5913
27.6003
27.6109
27.6228
27.6355
27.6487
27.662
27.6754
27.6886
27.7016
27.7142
27.7264
27.7381
27.7493
27.7599
27.7699
27.7793
27.7881
27.7963
27.8039
27.8109
27.8172
27.823
27.8283
27.8329
27.837
27.8407
27.8438
27.8465
27.8487
27.8505
27.8519
27.8529
27.8536
27.854
27.8541
27.8539
27.8535
27.8528
27.852
27.8509
27.8497
27.8484
27.8469
27.8453
27.8436
27.8418
27.8399
27.838
27.8361
27.8341
27.8321
27.8301
27.8281
27.8261
27.8241
27.8221
27.8201
27.8182
27.8163
27.8145
27.8127
27.811
27.8093
27.8076
27.8061
27.8045
27.8031
27.8016
27.8003
27.799
27.7977
27.7965
27.7954
27.7943
27.7933
27.7923
27.7914
27.7905
27.7897
27.7889
27.7881
27.7874
27.7868
27.7861
27.7855
27.785
27.7845
27.784
27.7835
27.7831
27.7827
27.7823
27.782
27.7817
27.7814
27.7811
27.7808
27.7806
27.7804
27.7802
27.78
27.7798
27.7796
27.7795
27.7793
27.7792
27.7791
27.779
27.7789
27.7788
27.7787
27.7786
27.7785
27.7785
27.7784
27.7783
27.7783
27.7782
27.7782
27.7782
27.7781
27.7781
27.7781
27.778
27.778
27.778
27.778
27.7779
27.7779
27.7779
27.7779
27.7779
27.7779
27.7779
27.7779
27.7778
27.7778
27.7778
27.7778
27.7778
27.7778
27.7778
27.7778
27.7778
27.7778
27.7778
27.7778
27.7778
27.7778
27.7778
27.7778
27.7778
27.7778
27.7778
27.7778
27.7778
27.7778
27.7778
27.7778
27.7778
27.7778
27.7778
27.7778
27.7778
27.7778
27.7778
27.7778
27.7778
27.7778
27.7778
27.7778
27.7778
27.7778
27.7778
27.7778
27.7778
27.7778
27.7778
27.7778
27.7778
27.7778
27.7778
27.7778
27.7778
27.7778
27.7778
27.7778
27.7778
27.7778
27.7778
27.7778
27.7778
27.7778
27.7778
27.7778
27.7778
27.7778
27.7778
27.7778
27.7778
27.7778
27.7778
27.7778
27.7778
27.7778
27.7778
27.7778
27.7778
27.7778
27.7778
27.7778
27.7778
27.7778
27.7778
27.7778
27.7778
27.7778
27.7778
27.7778
27.7778
27.7778
27.7778
27.7778
27.7778
27.7778
27.7778
27.7778
27.7778
27.7778
27.7778
27.7778
27.7778
27.7778
27.7778
27.7778
27.7778
27.7778
27.7778
27.7778
27.7778
27.7778
27.7778
27.7778
27.7778
27.7778
27.7778
27.7778
27.7778
27.7778
27.7778
27.7778
27.7778
27.7778
27.7778
27.7778
27.7778
27.7778
27.7778
27.7778
27.7778
27.7778
27.7778
27.7778
27.7778
27.7778
27.7778
27.7778
27.7778
27.7778
27.7778
27.7778
27.7778
27.7778
27.7778
27.7778
27.7778
27.7778
27.7778
27.7778
27.7778
27.7778
27.7778
27.7778
27.7778
27.7778
27.7778
27.7778
27.7778
27.7778
27.7778
27.7778
27.7778
27.7778
27.7778
27.7778
27.7778
27.7778
27.7778
27.7778
27.7778
27.7778
27.7778
27.7778
27.7778
27.7778
27.7778
27.7778
27.7778
27.7778
27.7778
27.7778
27.7778
27.7778
27.7778
27.7778
27.7778
27.7778
27.7778
27.7778
27.7778
27.7778
27.7778
27.7778
27.7778
27.7778
27.7778
27.7778
27.7778
27.7778
27.7778
27.7778
27.7778
27.7778
27.7778
27.7778
27.7778
27.7778
27.7778
27.7778
27.7778
27.7778
27.7778
27.7778
27.7778
27.7778
27.7778
27.7778
27.7778
27.7778
27.7778
27.7778
27.7778
27.7778
27.7778
27.7778
27.7778
27.7778
27.7778
27.7778
27.7778
27.7778
27.7778
27.7778
27.7778
27.7778
27.7778
27.7778
27.7778
27.7778
27.7778
27.7778
27.7778
27.7778
27.7778
27.7778
27.7778
27.7778
27.7778
27.7778
27.7778
27.7778
27.7778
27.7778
27.7778
27.7778
27.7778
27.7778
27.7778
27.7778
27.7778
27.7778
27.7778
27.7778
27.7778
27.7778
27.7778
27.7778
27.7778
27.7778
27.7778
27.7778
27.7778
27.7778
27.7778
27.7778
27.7778
27.7778
27.7778
27.7778
27.7778
27.7778
27.7778
27.7778
27.7778
27.7778
27.7778
27.7778
27.7778
27.7778
27.7778
27.7778
27.7778
27.7778
27.7778
27.7778
27.7778
27.7778
27.7778
27.7778
27.7778
27.7778
27.7778
27.7778
27.7778
27.7778
27.7778
27.7778
27.7778
27.7778
27.7778
27.7778
27.7778
27.7778
27.7778
27.7778
27.7778
27.7778
27.7778
27.7778
27.7778
27.7778
27.7778
27.7778
27.7778
27.7778
27.7778
27.7778
27.7778
27.7778
27.7778
27.7778
27.7778
27.7778
27.7778
27.7778
27.7778
27.7778
27.7778
27.7778
27.7778
27.7778
27.7778
27.7778
27.7778
27.7778
27.7778
27.7778
27.7778
27.7778
27.7778
27.7778
27.7778
27.7778
27.7778
27.7778
27.7778
27.7778
27.7778
27.7778
27.7778
27.7778
27.7778
27.7778
27.7778
27.7778
27.7778
27.7778
27.7778
27.7778
27.7778
27.7778
27.7778
27.7778
27.7778
27.7778
27.7778
27.7778
27.7778
27.7778
27.7778
27.7778
27.7778
27.7778
27.7778
27.7778
27.7778
27.7778
27.7778
27.7778
27.7778
27.7778
27.7778
27.7778
27.7778
27.7778
27.7778
27.7778
27.7778
27.7778
27.7778
27.7777
27.7777
27.7777
27.7777
27.7777
27.7777
27.7777
27.7776
27.7776
27.7776
27.7775
27.7774
27.7774
27.7773
27.7772
27.777
27.7768
27.7766
27.7763
27.776
27.7756
27.7751
27.7745
27.7738
27.7729
27.7718
27.7704
27.7688
27.7668
27.7644
27.7616
27.7582
27.7542
27.7495
27.7441
27.7379
27.731
27.7235
27.7159
27.7089
27.7038
27.7034
27.7125
27.7399
27.8008
27.9179
28.12
28.4338
28.8648
29.3601
29.8225
29.8033
30.4026
38.2369
35.3035
33.0924
31.8936
31.2044
30.6929
30.2573
29.886
29.5788
29.3293
29.1275
28.9639
28.8306
28.7216
28.6323
28.5587
28.4978
28.4473
28.4053
28.37
28.3404
28.3154
28.2942
28.2762
28.2608
28.2476
28.2363
28.2264
28.2179
28.2105
28.2039
28.1981
28.193
28.1883
28.184
28.18
28.1762
28.1725
28.1689
28.1652
28.1615
28.1577
28.1537
28.1496
28.1451
28.1405
28.1355
28.1303
28.1247
28.1188
28.1127
28.1062
28.0994
28.0923
28.0849
28.0773
28.0695
28.0615
28.0532
28.0449
28.0364
28.0278
28.0192
28.0105
28.0018
27.9931
27.9845
27.976
27.9675
27.9592
27.951
27.9429
27.9351
27.9274
27.9199
27.9127
27.9056
27.8988
27.8922
27.8859
27.8798
27.8739
27.8683
27.8629
27.8578
27.8529
27.8482
27.8438
27.8396
27.8356
27.8318
27.8282
27.8248
27.8216
27.8186
27.8158
27.8131
27.8106
27.8082
27.806
27.804
27.802
27.8002
27.7985
27.7969
27.7955
27.7941
27.7928
27.7916
27.7905
27.7895
27.7886
27.7877
27.7869
27.7861
27.7854
27.7848
27.7842
27.7836
27.7831
27.7827
27.7822
27.7818
27.7815
27.7811
27.7808
27.7806
27.7803
27.7801
27.7799
27.7797
27.7795
27.7793
27.7792
27.779
27.7789
27.7788
27.7787
27.7786
27.7785
27.7785
27.7784
27.7783
27.7783
27.7782
27.7782
27.7781
27.7781
27.7781
27.778
27.778
27.778
27.778
27.7779
27.7779
27.7779
27.7779
27.7779
27.7779
27.7779
27.7778
27.7778
27.7778
27.7778
27.7778
27.7778
27.7778
27.7778
27.7778
27.7778
27.7778
27.7778
27.7778
27.7778
27.7778
27.7778
27.7778
27.7778
27.7778
27.7778
27.7778
27.7778
27.7778
27.7778
27.7778
27.7778
27.7778
27.7778
27.7778
27.7778
27.7778
27.7778
27.7778
27.7778
27.7778
27.7778
27.7778
27.7778
27.7778
27.7778
27.7778
27.7778
27.7778
27.7778
27.7778
27.7778
27.7778
27.7778
27.7778
27.7778
27.7778
27.7778
27.7778
27.7778
27.7778
27.7778
27.7778
27.7778
27.7778
27.7778
27.7778
27.7778
27.7778
27.7778
27.7778
27.7778
27.7778
27.7778
27.7778
27.7778
27.7778
27.7778
27.7778
27.7778
27.7778
27.7778
27.7778
27.7778
27.7778
27.7778
27.7778
27.7778
27.7778
27.7778
27.7778
27.7778
27.7778
27.7778
27.7778
27.7778
27.7778
27.7778
27.7778
27.7778
27.7778
27.7778
27.7778
27.7778
27.7778
27.7778
27.7778
27.7778
27.7778
27.7778
27.7778
27.7778
27.7778
27.7778
27.7778
27.7778
27.7778
27.7778
27.7778
27.7778
27.7778
27.7778
27.7778
27.7778
27.7778
27.7778
27.7778
27.7778
27.7778
27.7778
27.7778
27.7778
27.7778
27.7778
27.7778
27.7778
27.7778
27.7778
27.7778
27.7778
27.7778
27.7778
27.7778
27.7778
27.7778
27.7778
27.7778
27.7778
27.7778
27.7778
27.7778
27.7778
27.7778
27.7778
27.7778
27.7778
27.7778
27.7778
27.7778
27.7778
27.7778
27.7778
27.7778
27.7778
27.7778
27.7778
27.7778
27.7778
27.7778
27.7778
27.7778
27.7778
27.7778
27.7778
27.7778
27.7778
27.7778
27.7778
27.7778
27.7778
27.7778
27.7778
27.7778
27.7778
27.7778
27.7778
27.7778
27.7778
27.7778
27.7778
27.7778
27.7778
27.7778
27.7778
27.7778
27.7778
27.7778
27.7778
27.7778
27.7778
27.7778
27.7778
27.7778
27.7778
27.7778
27.7778
27.7778
27.7778
27.7778
27.7778
27.7778
27.7778
27.7778
27.7778
27.7778
27.7778
27.7778
27.7778
27.7778
27.7778
27.7778
27.7778
27.7778
27.7778
27.7778
27.7778
27.7778
27.7778
27.7778
27.7778
27.7778
27.7778
27.7778
27.7778
27.7778
27.7778
27.7778
27.7778
27.7778
27.7778
27.7778
27.7778
27.7778
27.7778
27.7778
27.7778
27.7778
27.7778
27.7778
27.7778
27.7778
27.7778
27.7778
27.7778
27.7778
27.7778
27.7778
27.7778
27.7778
27.7778
27.7778
27.7778
27.7778
27.7778
27.7778
27.7778
27.7778
27.7778
27.7778
27.7778
27.7778
27.7778
27.7778
27.7778
27.7778
27.7778
27.7778
27.7778
27.7778
27.7778
27.7778
27.7778
27.7778
27.7778
27.7778
27.7778
27.7778
27.7778
27.7778
27.7778
27.7778
27.7778
27.7778
27.7778
27.7778
27.7778
27.7778
27.7778
27.7778
27.7778
27.7778
27.7778
27.7778
27.7778
27.7778
27.7778
27.7778
27.7778
27.7778
27.7778
27.7778
27.7778
27.7778
27.7778
27.7778
27.7778
27.7778
27.7778
27.7778
27.7778
27.7778
27.7778
27.7778
27.7778
27.7778
27.7778
27.7778
27.7778
27.7778
27.7778
27.7778
27.7778
27.7778
27.7778
27.7778
27.7778
27.7778
27.7778
27.7778
27.7778
27.7778
27.7778
27.7778
27.7778
27.7778
27.7778
27.7778
27.7778
27.7778
27.7778
27.7778
27.7778
27.7778
27.7778
27.7778
27.7778
27.7778
27.7778
27.7778
27.7778
27.7778
27.7778
27.7778
27.7778
27.7778
27.7778
27.7778
27.7778
27.7778
27.7778
27.7778
27.7778
27.7778
27.7778
27.7778
27.7778
27.7778
27.7778
27.7778
27.7778
27.7778
27.7778
27.7778
27.7778
27.7778
27.7778
27.7778
27.7778
27.7778
27.7778
27.7778
27.7778
27.7778
27.7778
27.7778
27.7778
27.7778
27.7778
27.7778
27.7778
27.7778
27.7778
27.7778
27.7778
27.7778
27.7778
27.7778
27.7778
27.7778
27.7778
27.7778
27.7778
27.7778
27.7778
27.7778
27.7779
27.7779
27.7779
27.7779
27.7779
27.7778
27.7778
27.7777
27.7776
27.7774
27.7771
27.7766
27.776
27.775
27.7736
27.7715
27.7687
27.7646
27.7591
27.7515
27.7416
27.7291
27.7147
27.7001
27.6895
27.6894
27.708
27.7533
27.8152
27.9713
26.6473
38.9829
38.56
36.7773
35.0968
33.9082
33.0759
32.4266
31.8774
31.4045
31.0012
30.6607
30.3739
30.1318
29.9264
29.7514
29.6014
29.4723
29.3606
29.2634
29.1784
29.1036
29.0376
28.9789
28.9266
28.8797
28.8375
28.7995
28.765
28.7336
28.705
28.6788
28.6548
28.6326
28.6122
28.5931
28.5754
28.5587
28.5429
28.5279
28.5136
28.4998
28.4863
28.4732
28.4602
28.4474
28.4345
28.4216
28.4086
28.3955
28.3821
28.3686
28.3548
28.3407
28.3264
28.3119
28.2971
28.2821
28.267
28.2517
28.2363
28.2208
28.2052
28.1897
28.1741
28.1587
28.1434
28.1282
28.1132
28.0984
28.0839
28.0697
28.0558
28.0422
28.029
28.0162
28.0037
27.9917
27.98
27.9688
27.958
27.9476
27.9377
27.9282
27.9191
27.9105
27.9022
27.8943
27.8869
27.8798
27.8731
27.8668
27.8608
27.8551
27.8498
27.8448
27.84
27.8356
27.8314
27.8275
27.8239
27.8205
27.8173
27.8143
27.8115
27.8089
27.8065
27.8042
27.8021
27.8002
27.7984
27.7967
27.7952
27.7937
27.7924
27.7912
27.79
27.789
27.788
27.7871
27.7863
27.7856
27.7849
27.7843
27.7837
27.7831
27.7826
27.7822
27.7818
27.7814
27.7811
27.7808
27.7805
27.7802
27.78
27.7798
27.7796
27.7794
27.7792
27.7791
27.779
27.7788
27.7787
27.7786
27.7785
27.7785
27.7784
27.7783
27.7783
27.7782
27.7782
27.7781
27.7781
27.778
27.778
27.778
27.778
27.7779
27.7779
27.7779
27.7779
27.7779
27.7779
27.7779
27.7778
27.7778
27.7778
27.7778
27.7778
27.7778
27.7778
27.7778
27.7778
27.7778
27.7778
27.7778
27.7778
27.7778
27.7778
27.7778
27.7778
27.7778
27.7778
27.7778
27.7778
27.7778
27.7778
27.7778
27.7778
27.7778
27.7778
27.7778
27.7778
27.7778
27.7778
27.7778
27.7778
27.7778
27.7778
27.7778
27.7778
27.7778
27.7778
27.7778
27.7778
27.7778
27.7778
27.7778
27.7778
27.7778
27.7778
27.7778
27.7778
27.7778
27.7778
27.7778
27.7778
27.7778
27.7778
27.7778
27.7778
27.7778
27.7778
27.7778
27.7778
27.7778
27.7778
27.7778
27.7778
27.7778
27.7778
27.7778
27.7778
27.7778
27.7778
27.7778
27.7778
27.7778
27.7778
27.7778
27.7778
27.7778
27.7778
27.7778
27.7778
27.7778
27.7778
27.7778
27.7778
27.7778
27.7778
27.7778
27.7778
27.7778
27.7778
27.7778
27.7778
27.7778
27.7778
27.7778
27.7778
27.7778
27.7778
27.7778
27.7778
27.7778
27.7778
27.7778
27.7778
27.7778
27.7778
27.7778
27.7778
27.7778
27.7778
27.7778
27.7778
27.7778
27.7778
27.7778
27.7778
27.7778
27.7778
27.7778
27.7778
27.7778
27.7778
27.7778
27.7778
27.7778
27.7778
27.7778
27.7778
27.7778
27.7778
27.7778
27.7778
27.7778
27.7778
27.7778
27.7778
27.7778
27.7778
27.7778
27.7778
27.7778
27.7778
27.7778
27.7778
27.7778
27.7778
27.7778
27.7778
27.7778
27.7778
27.7778
27.7778
27.7778
27.7778
27.7778
27.7778
27.7778
27.7778
27.7778
27.7778
27.7778
27.7778
27.7778
27.7778
27.7778
27.7778
27.7778
27.7778
27.7778
27.7778
27.7778
27.7778
27.7778
27.7778
27.7778
27.7778
27.7778
27.7778
27.7778
27.7778
27.7778
27.7778
27.7778
27.7778
27.7778
27.7778
27.7778
27.7778
27.7778
27.7778
27.7778
27.7778
27.7778
27.7778
27.7778
27.7778
27.7778
27.7778
27.7778
27.7778
27.7778
27.7778
27.7778
27.7778
27.7778
27.7778
27.7778
27.7778
27.7778
27.7778
27.7778
27.7778
27.7778
27.7778
27.7778
27.7778
27.7778
27.7778
27.7778
27.7778
27.7778
27.7778
27.7778
27.7778
27.7778
27.7778
27.7778
27.7778
27.7778
27.7778
27.7778
27.7778
27.7778
27.7778
27.7778
27.7778
27.7778
27.7778
27.7778
27.7778
27.7778
27.7778
27.7778
27.7778
27.7778
27.7778
27.7778
27.7778
27.7778
27.7778
27.7778
27.7778
27.7778
27.7778
27.7778
27.7778
27.7778
27.7778
27.7778
27.7778
27.7778
27.7778
27.7778
27.7778
27.7778
27.7778
27.7778
27.7778
27.7778
27.7778
27.7778
27.7778
27.7778
27.7778
27.7778
27.7778
27.7778
27.7778
27.7778
27.7778
27.7778
27.7778
27.7778
27.7778
27.7778
27.7778
27.7778
27.7778
27.7778
27.7778
27.7778
27.7778
27.7778
27.7778
27.7778
27.7778
27.7778
27.7778
27.7778
27.7778
27.7778
27.7778
27.7778
27.7778
27.7778
27.7778
27.7778
27.7778
27.7778
27.7778
27.7778
27.7778
27.7778
27.7778
27.7778
27.7778
27.7778
27.7778
27.7778
27.7778
27.7778
27.7778
27.7778
27.7778
27.7778
27.7778
27.7778
27.7778
27.7778
27.7778
27.7778
27.7778
27.7778
27.7778
27.7778
27.7778
27.7778
27.7778
27.7778
27.7778
27.7778
27.7778
27.7778
27.7778
27.7778
27.7778
27.7778
27.7778
27.7778
27.7778
27.7778
27.7778
27.7778
27.7778
27.7778
27.7778
27.7778
27.7778
27.7778
27.7778
27.7778
27.7778
27.7778
27.7778
27.7778
27.7778
27.7778
27.7778
27.7778
27.7778
27.7778
27.7778
27.7778
27.7778
27.7778
27.7778
27.7778
27.7778
27.7778
27.7778
27.7778
27.7778
27.7778
27.7778
27.7778
27.7778
27.7778
27.7778
27.7778
27.7779
27.7779
27.7779
27.7779
27.7779
27.778
27.778
27.7781
27.7782
27.7783
27.7784
27.7785
27.7787
27.7789
27.7791
27.7794
27.7798
27.7802
27.7808
27.7815
27.7823
27.7832
27.7844
27.7857
27.7874
27.7893
27.7915
27.794
27.7968
27.7998
27.803
27.8062
27.8089
27.8106
27.8104
27.8068
27.7975
27.7789
27.7457
27.6898
27.5997
27.4615
27.2575
26.9981
26.5833
26.8584
21.8073
38.62
39.3192
38.7333
37.4701
36.1916
35.1534
34.3391
33.6689
33.091
32.5849
32.1428
31.7591
31.4266
31.1381
30.8869
30.6673
30.4745
30.3045
30.154
30.0201
29.9004
29.7931
29.6963
29.6087
29.5292
29.4568
29.3906
29.3299
29.2742
29.2228
29.1753
29.1313
29.0905
29.0525
29.0171
28.9839
28.9527
28.9232
28.8953
28.8688
28.8434
28.8189
28.7953
28.7723
28.7497
28.7276
28.7057
28.684
28.6624
28.6408
28.6191
28.5974
28.5755
28.5535
28.5314
28.5091
28.4867
28.4642
28.4416
28.419
28.3964
28.3739
28.3514
28.3291
28.307
28.2851
28.2635
28.2422
28.2213
28.2008
28.1808
28.1612
28.1421
28.1236
28.1057
28.0883
28.0715
28.0553
28.0397
28.0247
28.0103
27.9966
27.9834
27.9708
27.9589
27.9475
27.9367
27.9264
27.9166
27.9074
27.8987
27.8905
27.8827
27.8754
27.8686
27.8621
27.8561
27.8504
27.845
27.8401
27.8354
27.8311
27.827
27.8232
27.8197
27.8164
27.8133
27.8105
27.8079
27.8054
27.8032
27.8011
27.7992
27.7974
27.7957
27.7942
27.7928
27.7915
27.7903
27.7892
27.7882
27.7873
27.7864
27.7856
27.7849
27.7843
27.7837
27.7831
27.7826
27.7821
27.7817
27.7814
27.781
27.7807
27.7804
27.7801
27.7799
27.7797
27.7795
27.7793
27.7792
27.779
27.7789
27.7788
27.7787
27.7786
27.7785
27.7784
27.7783
27.7783
27.7782
27.7782
27.7781
27.7781
27.7781
27.778
27.778
27.778
27.7779
27.7779
27.7779
27.7779
27.7779
27.7779
27.7779
27.7778
27.7778
27.7778
27.7778
27.7778
27.7778
27.7778
27.7778
27.7778
27.7778
27.7778
27.7778
27.7778
27.7778
27.7778
27.7778
27.7778
27.7778
27.7778
27.7778
27.7778
27.7778
27.7778
27.7778
27.7778
27.7778
27.7778
27.7778
27.7778
27.7778
27.7778
27.7778
27.7778
27.7778
27.7778
27.7778
27.7778
27.7778
27.7778
27.7778
27.7778
27.7778
27.7778
27.7778
27.7778
27.7778
27.7778
27.7778
27.7778
27.7778
27.7778
27.7778
27.7778
27.7778
27.7778
27.7778
27.7778
27.7778
27.7778
27.7778
27.7778
27.7778
27.7778
27.7778
27.7778
27.7778
27.7778
27.7778
27.7778
27.7778
27.7778
27.7778
27.7778
27.7778
27.7778
27.7778
27.7778
27.7778
27.7778
27.7778
27.7778
27.7778
27.7778
27.7778
27.7778
27.7778
27.7778
27.7778
27.7778
27.7778
27.7778
27.7778
27.7778
27.7778
27.7778
27.7778
27.7778
27.7778
27.7778
27.7778
27.7778
27.7778
27.7778
27.7778
27.7778
27.7778
27.7778
27.7778
27.7778
27.7778
27.7778
27.7778
27.7778
27.7778
27.7778
27.7778
27.7778
27.7778
27.7778
27.7778
27.7778
27.7778
27.7778
27.7778
27.7778
27.7778
27.7778
27.7778
27.7778
27.7778
27.7778
27.7778
27.7778
27.7778
27.7778
27.7778
27.7778
27.7778
27.7778
27.7778
27.7778
27.7778
27.7778
27.7778
27.7778
27.7778
27.7778
27.7778
27.7778
27.7778
27.7778
27.7778
27.7778
27.7778
27.7778
27.7778
27.7778
27.7778
27.7778
27.7778
27.7778
27.7778
27.7778
27.7778
27.7778
27.7778
27.7778
27.7778
27.7778
27.7778
27.7778
27.7778
27.7778
27.7778
27.7778
27.7778
27.7778
27.7778
27.7778
27.7778
27.7778
27.7778
27.7778
27.7778
27.7778
27.7778
27.7778
27.7778
27.7778
27.7778
27.7778
27.7778
27.7778
27.7778
27.7778
27.7778
27.7778
27.7778
27.7778
27.7778
27.7778
27.7778
27.7778
27.7778
27.7778
27.7778
27.7778
27.7778
27.7778
27.7778
27.7778
27.7778
27.7778
27.7778
27.7778
27.7778
27.7778
27.7778
27.7778
27.7778
27.7778
27.7778
27.7778
27.7778
27.7778
27.7778
27.7778
27.7778
27.7778
27.7778
27.7778
27.7778
27.7778
27.7778
27.7778
27.7778
27.7778
27.7778
27.7778
27.7778
27.7778
27.7778
27.7778
27.7778
27.7778
27.7778
27.7778
27.7778
27.7778
27.7778
27.7778
27.7778
27.7778
27.7778
27.7778
27.7778
27.7778
27.7778
27.7778
27.7778
27.7778
27.7778
27.7778
27.7778
27.7778
27.7778
27.7778
27.7778
27.7778
27.7778
27.7778
27.7778
27.7778
27.7778
27.7778
27.7778
27.7778
27.7778
27.7778
27.7778
27.7778
27.7778
27.7778
27.7778
27.7778
27.7778
27.7778
27.7778
27.7778
27.7778
27.7778
27.7778
27.7778
27.7778
27.7778
27.7778
27.7778
27.7778
27.7778
27.7778
27.7778
27.7778
27.7778
27.7778
27.7778
27.7778
27.7778
27.7778
27.7778
27.7778
27.7778
27.7778
27.7778
27.7778
27.7778
27.7778
27.7778
27.7778
27.7778
27.7778
27.7778
27.7778
27.7778
27.7778
27.7778
27.7778
27.7778
27.7778
27.7778
27.7778
27.7778
27.7778
27.7778
27.7778
27.7778
27.7778
27.7778
27.7778
27.7778
27.7778
27.7778
27.7778
27.7778
27.7778
27.7778
27.7778
27.7778
27.7778
27.7778
27.7778
27.7778
27.7778
27.7778
27.7778
27.7778
27.7778
27.7778
27.7778
27.7778
27.7778
27.7778
27.7778
27.7778
27.7778
27.7778
27.7778
27.7778
27.7778
27.7778
27.7778
27.7778
27.7778
27.7778
27.7778
27.7778
27.7778
27.7778
27.7778
27.7778
27.7778
27.7778
27.7778
27.7778
27.7778
27.7778
27.7778
27.7779
27.7779
27.7779
27.7779
27.7779
27.778
27.778
27.7781
27.7782
27.7783
27.7784
27.7785
27.7787
27.7789
27.7792
27.7795
27.7799
27.7804
27.781
27.7817
27.7826
27.7837
27.785
27.7866
27.7886
27.7909
27.7938
27.7972
27.8013
27.8061
27.8118
27.8184
27.8259
27.8344
27.8436
27.8531
27.8622
27.8695
27.8726
27.8676
27.8475
27.8009
27.709
27.5443
27.2617
26.8598
26.0711
26.5147
18.0366
38.2736
39.1197
39.3175
38.7799
37.8413
36.8508
35.9751
35.2335
34.5939
34.0284
33.5235
33.0732
32.6733
32.319
32.0047
31.7255
31.4766
31.2541
31.0544
30.8746
30.7122
30.5649
30.4309
30.3085
30.1965
30.0936
29.9988
29.9113
29.8304
29.7554
29.6856
29.6207
29.5601
29.5035
29.4504
29.4006
29.3537
29.3093
29.2673
29.2274
29.1892
29.1527
29.1175
29.0834
29.0503
29.018
28.9863
28.9551
28.9243
28.8938
28.8634
28.8332
28.8031
28.773
28.7429
28.7128
28.6828
28.6527
28.6228
28.5929
28.5632
28.5336
28.5043
28.4753
28.4466
28.4183
28.3904
28.363
28.3362
28.3099
28.2843
28.2593
28.235
28.2114
28.1886
28.1665
28.1452
28.1247
28.105
28.0861
28.0679
28.0506
28.034
28.0182
28.0032
27.9889
27.9753
27.9624
27.9502
27.9387
27.9278
27.9175
27.9079
27.8987
27.8902
27.8821
27.8746
27.8675
27.8609
27.8547
27.8489
27.8435
27.8385
27.8338
27.8294
27.8253
27.8216
27.818
27.8148
27.8118
27.809
27.8064
27.804
27.8018
27.7998
27.7979
27.7962
27.7946
27.7931
27.7917
27.7905
27.7894
27.7883
27.7874
27.7865
27.7857
27.7849
27.7843
27.7837
27.7831
27.7826
27.7821
27.7817
27.7813
27.781
27.7807
27.7804
27.7801
27.7799
27.7797
27.7795
27.7793
27.7791
27.779
27.7789
27.7787
27.7786
27.7785
27.7785
27.7784
27.7783
27.7783
27.7782
27.7782
27.7781
27.7781
27.778
27.778
27.778
27.778
27.7779
27.7779
27.7779
27.7779
27.7779
27.7779
27.7779
27.7778
27.7778
27.7778
27.7778
27.7778
27.7778
27.7778
27.7778
27.7778
27.7778
27.7778
27.7778
27.7778
27.7778
27.7778
27.7778
27.7778
27.7778
27.7778
27.7778
27.7778
27.7778
27.7778
27.7778
27.7778
27.7778
27.7778
27.7778
27.7778
27.7778
27.7778
27.7778
27.7778
27.7778
27.7778
27.7778
27.7778
27.7778
27.7778
27.7778
27.7778
27.7778
27.7778
27.7778
27.7778
27.7778
27.7778
27.7778
27.7778
27.7778
27.7778
27.7778
27.7778
27.7778
27.7778
27.7778
27.7778
27.7778
27.7778
27.7778
27.7778
27.7778
27.7778
27.7778
27.7778
27.7778
27.7778
27.7778
27.7778
27.7778
27.7778
27.7778
27.7778
27.7778
27.7778
27.7778
27.7778
27.7778
27.7778
27.7778
27.7778
27.7778
27.7778
27.7778
27.7778
27.7778
27.7778
27.7778
27.7778
27.7778
27.7778
27.7778
27.7778
27.7778
27.7778
27.7778
27.7778
27.7778
27.7778
27.7778
27.7778
27.7778
27.7778
27.7778
27.7778
27.7778
27.7778
27.7778
27.7778
27.7778
27.7778
27.7778
27.7778
27.7778
27.7778
27.7778
27.7778
27.7778
27.7778
27.7778
27.7778
27.7778
27.7778
27.7778
27.7778
27.7778
27.7778
27.7778
27.7778
27.7778
27.7778
27.7778
27.7778
27.7778
27.7778
27.7778
27.7778
27.7778
27.7778
27.7778
27.7778
27.7778
27.7778
27.7778
27.7778
27.7778
27.7778
27.7778
27.7778
27.7778
27.7778
27.7778
27.7778
27.7778
27.7778
27.7778
27.7778
27.7778
27.7778
27.7778
27.7778
27.7778
27.7778
27.7778
27.7778
27.7778
27.7778
27.7778
27.7778
27.7778
27.7778
27.7778
27.7778
27.7778
27.7778
27.7778
27.7778
27.7778
27.7778
27.7778
27.7778
27.7778
27.7778
27.7778
27.7778
27.7778
27.7778
27.7778
27.7778
27.7778
27.7778
27.7778
27.7778
27.7778
27.7778
27.7778
27.7778
27.7778
27.7778
27.7778
27.7778
27.7778
27.7778
27.7778
27.7778
27.7778
27.7778
27.7778
27.7778
27.7778
27.7778
27.7778
27.7778
27.7778
27.7778
27.7778
27.7778
27.7778
27.7778
27.7778
27.7778
27.7778
27.7778
27.7778
27.7778
27.7778
27.7778
27.7778
27.7778
27.7778
27.7778
27.7778
27.7778
27.7778
27.7778
27.7778
27.7778
27.7778
27.7778
27.7778
27.7778
27.7778
27.7778
27.7778
27.7778
27.7778
27.7778
27.7778
27.7778
27.7778
27.7778
27.7778
27.7778
27.7778
27.7778
27.7778
27.7778
27.7778
27.7778
27.7778
27.7778
27.7778
27.7778
27.7778
27.7778
27.7778
27.7778
27.7778
27.7778
27.7778
27.7778
27.7778
27.7778
27.7778
27.7778
27.7778
27.7778
27.7778
27.7778
27.7778
27.7778
27.7778
27.7778
27.7778
27.7778
27.7778
27.7778
27.7778
27.7778
27.7778
27.7778
27.7778
27.7778
27.7778
27.7778
27.7778
27.7778
27.7778
27.7778
27.7778
27.7778
27.7778
27.7778
27.7778
27.7778
27.7778
27.7778
27.7778
27.7778
27.7778
27.7778
27.7778
27.7778
27.7778
27.7778
27.7778
27.7778
27.7778
27.7778
27.7778
27.7778
27.7778
27.7778
27.7778
27.7778
27.7778
27.7778
27.7778
27.7778
27.7778
27.7778
27.7778
27.7778
27.7778
27.7778
27.7778
27.7778
27.7778
27.7778
27.7778
27.7778
27.7778
27.7778
27.7778
27.7778
27.7778
27.7778
27.7778
27.7778
27.7778
27.7778
27.7778
27.7778
27.7778
27.7778
27.7778
27.7778
27.7778
27.7778
27.7778
27.7778
27.7778
27.7778
27.7778
27.7778
27.7778
27.7778
27.7778
27.7778
27.7778
27.7778
27.7778
27.7778
27.7778
27.7778
27.7778
27.7778
27.7778
27.7778
27.7778
27.7778
27.7778
27.7778
27.7779
27.7779
27.7779
27.7779
27.7779
27.778
27.778
27.7781
27.7782
27.7783
27.7784
27.7785
27.7787
27.7789
27.7792
27.7795
27.7799
27.7804
27.781
27.7817
27.7826
27.7838
27.7851
27.7868
27.7889
27.7915
27.7946
27.7984
27.8031
27.8087
27.8156
27.8239
27.8338
27.8457
27.8598
27.8763
27.8955
27.9171
27.9408
27.9652
27.9877
28.0029
28.0006
27.9618
27.8555
27.6197
27.2443
26.2914
26.9189
16.4609
38.0753
38.7859
39.2502
39.2432
38.7798
38.0553
37.2714
36.5373
35.8802
35.2912
34.7575
34.2718
33.8306
33.4312
33.0704
32.7447
32.4503
32.1836
31.9415
31.7212
31.5202
31.3362
31.1674
31.0122
30.869
30.7365
30.6138
30.4999
30.3939
30.2951
30.2028
30.1165
30.0356
29.9597
29.8883
29.8211
29.7577
29.6976
29.6407
29.5865
29.5348
29.4853
29.4377
29.3918
29.3474
29.3042
29.262
29.2207
29.1802
29.1402
29.1007
29.0617
29.0229
28.9844
28.9461
28.908
28.8702
28.8325
28.7951
28.758
28.7211
28.6846
28.6485
28.6128
28.5777
28.5431
28.5092
28.4759
28.4433
28.4115
28.3805
28.3503
28.321
28.2926
28.2652
28.2387
28.2132
28.1886
28.165
28.1424
28.1208
28.1001
28.0803
28.0615
28.0437
28.0267
28.0105
27.9952
27.9808
27.9671
27.9542
27.9421
27.9306
27.9198
27.9097
27.9002
27.8913
27.883
27.8752
27.8679
27.8611
27.8547
27.8488
27.8433
27.8381
27.8333
27.8289
27.8248
27.821
27.8174
27.8142
27.8111
27.8083
27.8058
27.8034
27.8012
27.7992
27.7973
27.7956
27.794
27.7926
27.7912
27.79
27.7889
27.7879
27.7869
27.7861
27.7853
27.7846
27.7839
27.7833
27.7828
27.7823
27.7819
27.7815
27.7811
27.7808
27.7805
27.7802
27.7799
27.7797
27.7795
27.7793
27.7792
27.779
27.7789
27.7788
27.7787
27.7786
27.7785
27.7784
27.7783
27.7783
27.7782
27.7782
27.7781
27.7781
27.778
27.778
27.778
27.778
27.7779
27.7779
27.7779
27.7779
27.7779
27.7779
27.7779
27.7778
27.7778
27.7778
27.7778
27.7778
27.7778
27.7778
27.7778
27.7778
27.7778
27.7778
27.7778
27.7778
27.7778
27.7778
27.7778
27.7778
27.7778
27.7778
27.7778
27.7778
27.7778
27.7778
27.7778
27.7778
27.7778
27.7778
27.7778
27.7778
27.7778
27.7778
27.7778
27.7778
27.7778
27.7778
27.7778
27.7778
27.7778
27.7778
27.7778
27.7778
27.7778
27.7778
27.7778
27.7778
27.7778
27.7778
27.7778
27.7778
27.7778
27.7778
27.7778
27.7778
27.7778
27.7778
27.7778
27.7778
27.7778
27.7778
27.7778
27.7778
27.7778
27.7778
27.7778
27.7778
27.7778
27.7778
27.7778
27.7778
27.7778
27.7778
27.7778
27.7778
27.7778
27.7778
27.7778
27.7778
27.7778
27.7778
27.7778
27.7778
27.7778
27.7778
27.7778
27.7778
27.7778
27.7778
27.7778
27.7778
27.7778
27.7778
27.7778
27.7778
27.7778
27.7778
27.7778
27.7778
27.7778
27.7778
27.7778
27.7778
27.7778
27.7778
27.7778
27.7778
27.7778
27.7778
27.7778
27.7778
27.7778
27.7778
27.7778
27.7778
27.7778
27.7778
27.7778
27.7778
27.7778
27.7778
27.7778
27.7778
27.7778
27.7778
27.7778
27.7778
27.7778
27.7778
27.7778
27.7778
27.7778
27.7778
27.7778
27.7778
27.7778
27.7778
27.7778
27.7778
27.7778
27.7778
27.7778
27.7778
27.7778
27.7778
27.7778
27.7778
27.7778
27.7778
27.7778
27.7778
27.7778
27.7778
27.7778
27.7778
27.7778
27.7778
27.7778
27.7778
27.7778
27.7778
27.7778
27.7778
27.7778
27.7778
27.7778
27.7778
27.7778
27.7778
27.7778
27.7778
27.7778
27.7778
27.7778
27.7778
27.7778
27.7778
27.7778
27.7778
27.7778
27.7778
27.7778
27.7778
27.7778
27.7778
27.7778
27.7778
27.7778
27.7778
27.7778
27.7778
27.7778
27.7778
27.7778
27.7778
27.7778
27.7778
27.7778
27.7778
27.7778
27.7778
27.7778
27.7778
27.7778
27.7778
27.7778
27.7778
27.7778
27.7778
27.7778
27.7778
27.7778
27.7778
27.7778
27.7778
27.7778
27.7778
27.7778
27.7778
27.7778
27.7778
27.7778
27.7778
27.7778
27.7778
27.7778
27.7778
27.7778
27.7778
27.7778
27.7778
27.7778
27.7778
27.7778
27.7778
27.7778
27.7778
27.7778
27.7778
27.7778
27.7778
27.7778
27.7778
27.7778
27.7778
27.7778
27.7778
27.7778
27.7778
27.7778
27.7778
27.7778
27.7778
27.7778
27.7778
27.7778
27.7778
27.7778
27.7778
27.7778
27.7778
27.7778
27.7778
27.7778
27.7778
27.7778
27.7778
27.7778
27.7778
27.7778
27.7778
27.7778
27.7778
27.7778
27.7778
27.7778
27.7778
27.7778
27.7778
27.7778
27.7778
27.7778
27.7778
27.7778
27.7778
27.7778
27.7778
27.7778
27.7778
27.7778
27.7778
27.7778
27.7778
27.7778
27.7778
27.7778
27.7778
27.7778
27.7778
27.7778
27.7778
27.7778
27.7778
27.7778
27.7778
27.7778
27.7778
27.7778
27.7778
27.7778
27.7778
27.7778
27.7778
27.7778
27.7778
27.7778
27.7778
27.7778
27.7778
27.7778
27.7778
27.7778
27.7778
27.7778
27.7778
27.7778
27.7778
27.7778
27.7778
27.7778
27.7778
27.7778
27.7778
27.7778
27.7778
27.7778
27.7778
27.7778
27.7778
27.7778
27.7778
27.7778
27.7778
27.7778
27.7778
27.7778
27.7778
27.7778
27.7778
27.7778
27.7778
27.7778
27.7778
27.7778
27.7778
27.7778
27.7778
27.7778
27.7778
27.7778
27.7778
27.7778
27.7778
27.7778
27.7778
27.7778
27.7778
27.7778
27.7778
27.7778
27.7778
27.7778
27.7778
27.7778
27.7778
27.7778
27.7778
27.7778
27.7778
27.7778
27.7778
27.7778
27.7778
27.7778
27.7779
27.7779
27.7779
27.7779
27.778
27.778
27.7781
27.7781
27.7782
27.7783
27.7784
27.7786
27.7788
27.779
27.7793
27.7797
27.7801
27.7807
27.7814
27.7822
27.7833
27.7846
27.7862
27.7881
27.7906
27.7936
27.7973
27.802
27.8077
27.8147
27.8234
27.8342
27.8474
27.8637
27.8838
27.9084
27.9385
27.9752
28.0194
28.0719
28.1327
28.2001
28.2689
28.3258
28.3464
28.2682
28.0807
27.2351
28.0162
17.624
37.9552
38.5365
39.0155
39.2528
39.1567
38.7596
38.1832
37.5496
36.9316
36.3551
35.8218
35.3277
34.8699
34.4471
34.0578
33.7005
33.3728
33.0722
32.7961
32.5422
32.3083
32.0923
31.8926
31.7075
31.5355
31.3756
31.2264
31.0872
30.9569
30.8349
30.7204
30.6129
30.5117
30.4165
30.3266
30.2417
30.1613
30.0851
30.0127
29.9438
29.8779
29.8149
29.7544
29.6962
29.6398
29.5852
29.5321
29.4803
29.4296
29.3799
29.3309
29.2827
29.235
29.1879
29.1413
29.0951
29.0493
29.004
28.9591
28.9146
28.8707
28.8273
28.7845
28.7424
28.7009
28.6602
28.6204
28.5813
28.5432
28.5061
28.4699
28.4348
28.4008
28.3679
28.3361
28.3054
28.2759
28.2475
28.2203
28.1942
28.1693
28.1455