/*--------------------------------*- C++ -*----------------------------------*\
  =========                 |
  \\      /  F ield         | OpenFOAM: The Open Source CFD Toolbox
   \\    /   O peration     | Website:  https://openfoam.org
    \\  /    A nd           | Version:  9
     \\/     M anipulation  |
\*---------------------------------------------------------------------------*/
FoamFile
{
    format      ascii;
    class       volVectorField;
    location    "2.85";
    object      U;
}
// * * * * * * * * * * * * * * * * * * * * * * * * * * * * * * * * * * * * * //

dimensions      [0 1 -1 0 0 0 0];

internalField   nonuniform List<vector> 
1000
(
(0.131762 0 0)
(0.131697 0 0)
(0.131763 0 0)
(0.131695 0 0)
(0.131764 0 0)
(0.131693 0 0)
(0.131765 0 0)
(0.13169 0 0)
(0.131766 0 0)
(0.131687 0 0)
(0.131766 0 0)
(0.131685 0 0)
(0.131767 0 0)
(0.131682 0 0)
(0.131767 0 0)
(0.13168 0 0)
(0.131767 0 0)
(0.131677 0 0)
(0.131768 0 0)
(0.131674 0 0)
(0.131768 0 0)
(0.131672 0 0)
(0.131768 0 0)
(0.131669 0 0)
(0.131768 0 0)
(0.131666 0 0)
(0.131768 0 0)
(0.131664 0 0)
(0.131768 0 0)
(0.131662 0 0)
(0.131768 0 0)
(0.131659 0 0)
(0.131767 0 0)
(0.131657 0 0)
(0.131767 0 0)
(0.131655 0 0)
(0.131767 0 0)
(0.131654 0 0)
(0.131766 0 0)
(0.131652 0 0)
(0.131766 0 0)
(0.131651 0 0)
(0.131766 0 0)
(0.131651 0 0)
(0.131765 0 0)
(0.13165 0 0)
(0.131765 0 0)
(0.13165 0 0)
(0.131765 0 0)
(0.131651 0 0)
(0.131766 0 0)
(0.131652 0 0)
(0.131766 0 0)
(0.131653 0 0)
(0.131767 0 0)
(0.131656 0 0)
(0.131769 0 0)
(0.131659 0 0)
(0.13177 0 0)
(0.131662 0 0)
(0.131773 0 0)
(0.131667 0 0)
(0.131776 0 0)
(0.131672 0 0)
(0.131779 0 0)
(0.131679 0 0)
(0.131784 0 0)
(0.131686 0 0)
(0.131789 0 0)
(0.131694 0 0)
(0.131795 0 0)
(0.131704 0 0)
(0.131802 0 0)
(0.131715 0 0)
(0.131811 0 0)
(0.131728 0 0)
(0.13182 0 0)
(0.131742 0 0)
(0.131831 0 0)
(0.131757 0 0)
(0.131844 0 0)
(0.131773 0 0)
(0.131859 0 0)
(0.131791 0 0)
(0.131876 0 0)
(0.131808 0 0)
(0.1319 0 0)
(0.13182 0 0)
(0.131936 0 0)
(0.131822 0 0)
(0.131991 0 0)
(0.131808 0 0)
(0.13207 0 0)
(0.131788 0 0)
(0.132159 0 0)
(0.1318 0 0)
(0.132224 0 0)
(0.131895 0 0)
(0.132256 0 0)
(0.132066 0 0)
(0.132313 0 0)
(0.132238 0 0)
(0.132417 0 0)
(0.132384 0 0)
(0.132536 0 0)
(0.132503 0 0)
(0.132637 0 0)
(0.132597 0 0)
(0.132713 0 0)
(0.132667 0 0)
(0.132768 0 0)
(0.132719 0 0)
(0.132808 0 0)
(0.13276 0 0)
(0.13284 0 0)
(0.132795 0 0)
(0.132869 0 0)
(0.132829 0 0)
(0.132898 0 0)
(0.132864 0 0)
(0.132928 0 0)
(0.132899 0 0)
(0.13296 0 0)
(0.132935 0 0)
(0.132993 0 0)
(0.132973 0 0)
(0.133027 0 0)
(0.133012 0 0)
(0.133063 0 0)
(0.133052 0 0)
(0.1331 0 0)
(0.133094 0 0)
(0.133139 0 0)
(0.133136 0 0)
(0.133179 0 0)
(0.133179 0 0)
(0.13322 0 0)
(0.133223 0 0)
(0.133262 0 0)
(0.133268 0 0)
(0.133305 0 0)
(0.133314 0 0)
(0.133348 0 0)
(0.13336 0 0)
(0.133393 0 0)
(0.133406 0 0)
(0.133437 0 0)
(0.133452 0 0)
(0.133482 0 0)
(0.133499 0 0)
(0.133527 0 0)
(0.133545 0 0)
(0.133572 0 0)
(0.133591 0 0)
(0.133617 0 0)
(0.133637 0 0)
(0.133661 0 0)
(0.133682 0 0)
(0.133705 0 0)
(0.133726 0 0)
(0.133748 0 0)
(0.13377 0 0)
(0.133791 0 0)
(0.133812 0 0)
(0.133832 0 0)
(0.133853 0 0)
(0.133872 0 0)
(0.133893 0 0)
(0.133911 0 0)
(0.133931 0 0)
(0.133948 0 0)
(0.133968 0 0)
(0.133983 0 0)
(0.134003 0 0)
(0.134017 0 0)
(0.134036 0 0)
(0.134049 0 0)
(0.134066 0 0)
(0.134078 0 0)
(0.134095 0 0)
(0.134105 0 0)
(0.134121 0 0)
(0.13413 0 0)
(0.134145 0 0)
(0.134152 0 0)
(0.134166 0 0)
(0.13417 0 0)
(0.134185 0 0)
(0.134186 0 0)
(0.134201 0 0)
(0.134198 0 0)
(0.134214 0 0)
(0.134208 0 0)
(0.134223 0 0)
(0.134216 0 0)
(0.134228 0 0)
(0.134224 0 0)
(0.134232 0 0)
(0.13423 0 0)
(0.13424 0 0)
(0.134241 0 0)
(0.134251 0 0)
(0.13425 0 0)
(0.134244 0 0)
(0.134209 0 0)
(0.134154 0 0)
(0.134068 0 0)
(0.133977 0 0)
(0.133879 0 0)
(0.133799 0 0)
(0.13373 0 0)
(0.133684 0 0)
(0.133647 0 0)
(0.133627 0 0)
(0.133609 0 0)
(0.1336 0 0)
(0.13359 0 0)
(0.133585 0 0)
(0.133576 0 0)
(0.133571 0 0)
(0.133562 0 0)
(0.133556 0 0)
(0.133546 0 0)
(0.133539 0 0)
(0.133528 0 0)
(0.133519 0 0)
(0.133507 0 0)
(0.133498 0 0)
(0.133484 0 0)
(0.133473 0 0)
(0.133459 0 0)
(0.133447 0 0)
(0.133432 0 0)
(0.133419 0 0)
(0.133403 0 0)
(0.133389 0 0)
(0.133372 0 0)
(0.133357 0 0)
(0.133339 0 0)
(0.133323 0 0)
(0.133305 0 0)
(0.133287 0 0)
(0.133268 0 0)
(0.13325 0 0)
(0.133231 0 0)
(0.133212 0 0)
(0.133192 0 0)
(0.133173 0 0)
(0.133152 0 0)
(0.133132 0 0)
(0.133112 0 0)
(0.133091 0 0)
(0.13307 0 0)
(0.133049 0 0)
(0.133027 0 0)
(0.133006 0 0)
(0.132984 0 0)
(0.132963 0 0)
(0.132941 0 0)
(0.132919 0 0)
(0.132897 0 0)
(0.132876 0 0)
(0.132854 0 0)
(0.132832 0 0)
(0.13281 0 0)
(0.132788 0 0)
(0.132766 0 0)
(0.132744 0 0)
(0.132723 0 0)
(0.132701 0 0)
(0.132679 0 0)
(0.132658 0 0)
(0.132637 0 0)
(0.132616 0 0)
(0.132595 0 0)
(0.132574 0 0)
(0.132553 0 0)
(0.132533 0 0)
(0.132512 0 0)
(0.132492 0 0)
(0.132473 0 0)
(0.132453 0 0)
(0.132434 0 0)
(0.132415 0 0)
(0.132396 0 0)
(0.132377 0 0)
(0.132359 0 0)
(0.132341 0 0)
(0.132323 0 0)
(0.132305 0 0)
(0.132288 0 0)
(0.132271 0 0)
(0.132255 0 0)
(0.132239 0 0)
(0.132223 0 0)
(0.132207 0 0)
(0.132192 0 0)
(0.132177 0 0)
(0.132162 0 0)
(0.132147 0 0)
(0.132133 0 0)
(0.13212 0 0)
(0.132106 0 0)
(0.132093 0 0)
(0.13208 0 0)
(0.132068 0 0)
(0.132056 0 0)
(0.132044 0 0)
(0.132032 0 0)
(0.132021 0 0)
(0.13201 0 0)
(0.132 0 0)
(0.131989 0 0)
(0.131979 0 0)
(0.13197 0 0)
(0.13196 0 0)
(0.131951 0 0)
(0.131942 0 0)
(0.131934 0 0)
(0.131926 0 0)
(0.131918 0 0)
(0.13191 0 0)
(0.131902 0 0)
(0.131895 0 0)
(0.131888 0 0)
(0.131881 0 0)
(0.131875 0 0)
(0.131869 0 0)
(0.131863 0 0)
(0.131857 0 0)
(0.131851 0 0)
(0.131846 0 0)
(0.131841 0 0)
(0.131836 0 0)
(0.131831 0 0)
(0.131826 0 0)
(0.131822 0 0)
(0.131818 0 0)
(0.131814 0 0)
(0.13181 0 0)
(0.131806 0 0)
(0.131803 0 0)
(0.131799 0 0)
(0.131796 0 0)
(0.131793 0 0)
(0.13179 0 0)
(0.131787 0 0)
(0.131785 0 0)
(0.131782 0 0)
(0.13178 0 0)
(0.131777 0 0)
(0.131775 0 0)
(0.131773 0 0)
(0.131771 0 0)
(0.131769 0 0)
(0.131767 0 0)
(0.131766 0 0)
(0.131764 0 0)
(0.131763 0 0)
(0.131761 0 0)
(0.13176 0 0)
(0.131758 0 0)
(0.131757 0 0)
(0.131756 0 0)
(0.131755 0 0)
(0.131754 0 0)
(0.131753 0 0)
(0.131752 0 0)
(0.131751 0 0)
(0.13175 0 0)
(0.131749 0 0)
(0.131749 0 0)
(0.131748 0 0)
(0.131747 0 0)
(0.131747 0 0)
(0.131746 0 0)
(0.131746 0 0)
(0.131745 0 0)
(0.131745 0 0)
(0.131744 0 0)
(0.131744 0 0)
(0.131743 0 0)
(0.131743 0 0)
(0.131743 0 0)
(0.131742 0 0)
(0.131742 0 0)
(0.131742 0 0)
(0.131741 0 0)
(0.131741 0 0)
(0.131741 0 0)
(0.131741 0 0)
(0.131741 0 0)
(0.13174 0 0)
(0.13174 0 0)
(0.13174 0 0)
(0.13174 0 0)
(0.13174 0 0)
(0.13174 0 0)
(0.131739 0 0)
(0.131739 0 0)
(0.131739 0 0)
(0.131739 0 0)
(0.131739 0 0)
(0.131739 0 0)
(0.131739 0 0)
(0.131739 0 0)
(0.131739 0 0)
(0.131739 0 0)
(0.131739 0 0)
(0.131739 0 0)
(0.131739 0 0)
(0.131738 0 0)
(0.131738 0 0)
(0.131738 0 0)
(0.131738 0 0)
(0.131738 0 0)
(0.131738 0 0)
(0.131738 0 0)
(0.131738 0 0)
(0.131738 0 0)
(0.131738 0 0)
(0.131738 0 0)
(0.131738 0 0)
(0.131738 0 0)
(0.131738 0 0)
(0.131738 0 0)
(0.131738 0 0)
(0.131738 0 0)
(0.131738 0 0)
(0.131738 0 0)
(0.131738 0 0)
(0.131738 0 0)
(0.131738 0 0)
(0.131738 0 0)
(0.131738 0 0)
(0.131738 0 0)
(0.131738 0 0)
(0.131738 0 0)
(0.131738 0 0)
(0.131738 0 0)
(0.131738 0 0)
(0.131738 0 0)
(0.131738 0 0)
(0.131738 0 0)
(0.131738 0 0)
(0.131738 0 0)
(0.131738 0 0)
(0.131738 0 0)
(0.131738 0 0)
(0.131738 0 0)
(0.131738 0 0)
(0.131738 0 0)
(0.131738 0 0)
(0.131738 0 0)
(0.131738 0 0)
(0.131738 0 0)
(0.131738 0 0)
(0.131738 0 0)
(0.131738 0 0)
(0.131738 0 0)
(0.131738 0 0)
(0.131738 0 0)
(0.131738 0 0)
(0.131738 0 0)
(0.131738 0 0)
(0.131738 0 0)
(0.131738 0 0)
(0.131738 0 0)
(0.131738 0 0)
(0.131738 0 0)
(0.131738 0 0)
(0.131738 0 0)
(0.131738 0 0)
(0.131738 0 0)
(0.131738 0 0)
(0.131738 0 0)
(0.131738 0 0)
(0.131738 0 0)
(0.131738 0 0)
(0.131738 0 0)
(0.131738 0 0)
(0.131738 0 0)
(0.131738 0 0)
(0.131738 0 0)
(0.131738 0 0)
(0.131738 0 0)
(0.131738 0 0)
(0.131738 0 0)
(0.131738 0 0)
(0.131738 0 0)
(0.131738 0 0)
(0.131738 0 0)
(0.131738 0 0)
(0.131738 0 0)
(0.131738 0 0)
(0.131738 0 0)
(0.131738 0 0)
(0.131738 0 0)
(0.131738 0 0)
(0.131738 0 0)
(0.131738 0 0)
(0.131738 0 0)
(0.131738 0 0)
(0.131738 0 0)
(0.131738 0 0)
(0.131738 0 0)
(0.131738 0 0)
(0.131738 0 0)
(0.131738 0 0)
(0.131738 0 0)
(0.131738 0 0)
(0.131738 0 0)
(0.131738 0 0)
(0.131738 0 0)
(0.131738 0 0)
(0.131738 0 0)
(0.131738 0 0)
(0.131738 0 0)
(0.131738 0 0)
(0.131738 0 0)
(0.131738 0 0)
(0.131738 0 0)
(0.131738 0 0)
(0.131738 0 0)
(0.131738 0 0)
(0.131738 0 0)
(0.131738 0 0)
(0.131738 0 0)
(0.131738 0 0)
(0.131738 0 0)
(0.131738 0 0)
(0.131738 0 0)
(0.131738 0 0)
(0.131738 0 0)
(0.131738 0 0)
(0.131738 0 0)
(0.131738 0 0)
(0.131738 0 0)
(0.131738 0 0)
(0.131738 0 0)
(0.131738 0 0)
(0.131738 0 0)
(0.131738 0 0)
(0.131738 0 0)
(0.131738 0 0)
(0.131738 0 0)
(0.131738 0 0)
(0.131738 0 0)
(0.131738 0 0)
(0.131738 0 0)
(0.131738 0 0)
(0.131738 0 0)
(0.131738 0 0)
(0.131738 0 0)
(0.131738 0 0)
(0.131738 0 0)
(0.131738 0 0)
(0.131738 0 0)
(0.131738 0 0)
(0.131738 0 0)
(0.131738 0 0)
(0.131738 0 0)
(0.131738 0 0)
(0.131738 0 0)
(0.131738 0 0)
(0.131738 0 0)
(0.131738 0 0)
(0.131738 0 0)
(0.131738 0 0)
(0.131738 0 0)
(0.131738 0 0)
(0.131738 0 0)
(0.131738 0 0)
(0.131738 0 0)
(0.131738 0 0)
(0.131738 0 0)
(0.131738 0 0)
(0.131738 0 0)
(0.131738 0 0)
(0.131738 0 0)
(0.131738 0 0)
(0.131738 0 0)
(0.131738 0 0)
(0.131738 0 0)
(0.131738 0 0)
(0.131738 0 0)
(0.131738 0 0)
(0.131738 0 0)
(0.131738 0 0)
(0.131738 0 0)
(0.131738 0 0)
(0.131738 0 0)
(0.131738 0 0)
(0.131738 0 0)
(0.131738 0 0)
(0.131738 0 0)
(0.131738 0 0)
(0.131738 0 0)
(0.131738 0 0)
(0.131738 0 0)
(0.131738 0 0)
(0.131738 0 0)
(0.131738 0 0)
(0.131738 0 0)
(0.131738 0 0)
(0.131738 0 0)
(0.131738 0 0)
(0.131738 0 0)
(0.131738 0 0)
(0.131738 0 0)
(0.131738 0 0)
(0.131738 0 0)
(0.131738 0 0)
(0.131738 0 0)
(0.131738 0 0)
(0.131738 0 0)
(0.131738 0 0)
(0.131738 0 0)
(0.131738 0 0)
(0.131738 0 0)
(0.131738 0 0)
(0.131738 0 0)
(0.131738 0 0)
(0.131738 0 0)
(0.131738 0 0)
(0.131738 0 0)
(0.131738 0 0)
(0.131738 0 0)
(0.131738 0 0)
(0.131738 0 0)
(0.131738 0 0)
(0.131738 0 0)
(0.131738 0 0)
(0.131738 0 0)
(0.131738 0 0)
(0.131738 0 0)
(0.131738 0 0)
(0.131738 0 0)
(0.131738 0 0)
(0.131738 0 0)
(0.131738 0 0)
(0.131738 0 0)
(0.131738 0 0)
(0.131738 0 0)
(0.131738 0 0)
(0.131738 0 0)
(0.131738 0 0)
(0.131738 0 0)
(0.131738 0 0)
(0.131738 0 0)
(0.131738 0 0)
(0.131738 0 0)
(0.131738 0 0)
(0.131738 0 0)
(0.131738 0 0)
(0.131738 0 0)
(0.131738 0 0)
(0.131738 0 0)
(0.131738 0 0)
(0.131738 0 0)
(0.131738 0 0)
(0.131738 0 0)
(0.131738 0 0)
(0.131738 0 0)
(0.131738 0 0)
(0.131738 0 0)
(0.131738 0 0)
(0.131738 0 0)
(0.131738 0 0)
(0.131738 0 0)
(0.131738 0 0)
(0.131738 0 0)
(0.131738 0 0)
(0.131738 0 0)
(0.131738 0 0)
(0.131738 0 0)
(0.131738 0 0)
(0.131738 0 0)
(0.131738 0 0)
(0.131738 0 0)
(0.131738 0 0)
(0.131738 0 0)
(0.131738 0 0)
(0.131738 0 0)
(0.131738 0 0)
(0.131738 0 0)
(0.131738 0 0)
(0.131738 0 0)
(0.131738 0 0)
(0.131738 0 0)
(0.131738 0 0)
(0.131738 0 0)
(0.131738 0 0)
(0.131738 0 0)
(0.131738 0 0)
(0.131738 0 0)
(0.131738 0 0)
(0.131738 0 0)
(0.131738 0 0)
(0.131738 0 0)
(0.131738 0 0)
(0.131738 0 0)
(0.131738 0 0)
(0.131738 0 0)
(0.131738 0 0)
(0.131738 0 0)
(0.131738 0 0)
(0.131738 0 0)
(0.131738 0 0)
(0.131738 0 0)
(0.131738 0 0)
(0.131738 0 0)
(0.131738 0 0)
(0.131738 0 0)
(0.131738 0 0)
(0.131738 0 0)
(0.131738 0 0)
(0.131738 0 0)
(0.131738 0 0)
(0.131738 0 0)
(0.131738 0 0)
(0.131738 0 0)
(0.131738 0 0)
(0.131738 0 0)
(0.131738 0 0)
(0.131738 0 0)
(0.131738 0 0)
(0.131738 0 0)
(0.131738 0 0)
(0.131738 0 0)
(0.131738 0 0)
(0.131738 0 0)
(0.131738 0 0)
(0.131738 0 0)
(0.131738 0 0)
(0.131738 0 0)
(0.131738 0 0)
(0.131738 0 0)
(0.131738 0 0)
(0.131738 0 0)
(0.131738 0 0)
(0.131738 0 0)
(0.131738 0 0)
(0.131738 0 0)
(0.131738 0 0)
(0.131738 0 0)
(0.131738 0 0)
(0.131738 0 0)
(0.131738 0 0)
(0.131738 0 0)
(0.131738 0 0)
(0.131738 0 0)
(0.131738 0 0)
(0.131738 0 0)
(0.131738 0 0)
(0.131738 0 0)
(0.131738 0 0)
(0.131738 0 0)
(0.131738 0 0)
(0.131738 0 0)
(0.131738 0 0)
(0.131738 0 0)
(0.131738 0 0)
(0.131738 0 0)
(0.131738 0 0)
(0.131738 0 0)
(0.131738 0 0)
(0.131738 0 0)
(0.131738 0 0)
(0.131738 0 0)
(0.131738 0 0)
(0.131738 0 0)
(0.131738 0 0)
(0.131738 0 0)
(0.131738 0 0)
(0.131738 0 0)
(0.131738 0 0)
(0.131738 0 0)
(0.131738 0 0)
(0.131738 0 0)
(0.131738 0 0)
(0.131738 0 0)
(0.131738 0 0)
(0.131738 0 0)
(0.131738 0 0)
(0.131738 0 0)
(0.131738 0 0)
(0.131738 0 0)
(0.131738 0 0)
(0.131738 0 0)
(0.131738 0 0)
(0.131738 0 0)
(0.131738 0 0)
(0.131738 0 0)
(0.131738 0 0)
(0.131738 0 0)
(0.131738 0 0)
(0.131738 0 0)
(0.131738 0 0)
(0.131738 0 0)
(0.131738 0 0)
(0.131738 0 0)
(0.131738 0 0)
(0.131738 0 0)
(0.131738 0 0)
(0.131738 0 0)
(0.131738 0 0)
(0.131738 0 0)
(0.131738 0 0)
(0.131738 0 0)
(0.131738 0 0)
(0.131738 0 0)
(0.131738 0 0)
(0.131738 0 0)
(0.131738 0 0)
(0.131738 0 0)
(0.131738 0 0)
(0.131738 0 0)
(0.131738 0 0)
(0.131738 0 0)
(0.131738 0 0)
(0.131738 0 0)
(0.131738 0 0)
(0.131738 0 0)
(0.131738 0 0)
(0.131738 0 0)
(0.131738 0 0)
(0.131738 0 0)
(0.131738 0 0)
(0.131738 0 0)
(0.131738 0 0)
(0.131738 0 0)
(0.131738 0 0)
(0.131738 0 0)
(0.131738 0 0)
(0.131738 0 0)
(0.131738 0 0)
(0.131738 0 0)
(0.131738 0 0)
(0.131738 0 0)
(0.131738 0 0)
(0.131738 0 0)
(0.131738 0 0)
(0.131738 0 0)
(0.131738 0 0)
(0.131738 0 0)
(0.131738 0 0)
(0.131738 0 0)
(0.131738 0 0)
(0.131738 0 0)
(0.131738 0 0)
(0.131738 0 0)
(0.131738 0 0)
(0.131738 0 0)
(0.131738 0 0)
(0.131738 0 0)
(0.131738 0 0)
(0.131738 0 0)
(0.131738 0 0)
(0.131738 0 0)
(0.131738 0 0)
(0.131738 0 0)
(0.131738 0 0)
(0.131738 0 0)
(0.131738 0 0)
(0.131738 0 0)
(0.131738 0 0)
(0.131738 0 0)
(0.131738 0 0)
(0.131738 0 0)
(0.131738 0 0)
(0.131738 0 0)
(0.131738 0 0)
(0.131738 0 0)
(0.131738 0 0)
(0.131738 0 0)
(0.131738 0 0)
(0.131738 0 0)
(0.131738 0 0)
(0.131738 0 0)
(0.131738 0 0)
(0.131738 0 0)
(0.131738 0 0)
(0.131738 0 0)
(0.131738 0 0)
(0.131738 0 0)
(0.131738 0 0)
(0.131738 0 0)
(0.131738 0 0)
(0.131738 0 0)
(0.131738 0 0)
(0.131738 0 0)
(0.131738 0 0)
(0.131738 0 0)
(0.131738 0 0)
(0.131738 0 0)
(0.131738 0 0)
(0.131738 0 0)
(0.131738 0 0)
(0.131738 0 0)
(0.131738 0 0)
(0.131738 0 0)
(0.131738 0 0)
(0.131738 0 0)
(0.131738 0 0)
(0.131738 0 0)
(0.131738 0 0)
(0.131738 0 0)
(0.131738 0 0)
(0.131738 0 0)
(0.131738 0 0)
(0.131738 0 0)
(0.131738 0 0)
(0.131737 0 0)
(0.131739 0 0)
(0.131737 0 0)
(0.131739 0 0)
(0.131737 0 0)
(0.131739 0 0)
(0.131737 0 0)
(0.131739 0 0)
(0.131737 0 0)
(0.131739 0 0)
(0.131737 0 0)
(0.131739 0 0)
(0.131737 0 0)
(0.131739 0 0)
(0.131737 0 0)
(0.131739 0 0)
(0.131736 0 0)
(0.131739 0 0)
(0.131736 0 0)
(0.13174 0 0)
(0.131736 0 0)
(0.13174 0 0)
(0.131736 0 0)
(0.13174 0 0)
(0.131736 0 0)
(0.13174 0 0)
(0.131735 0 0)
(0.131741 0 0)
(0.131735 0 0)
(0.131741 0 0)
(0.131735 0 0)
(0.131741 0 0)
(0.131734 0 0)
(0.131742 0 0)
(0.131734 0 0)
(0.131742 0 0)
(0.131733 0 0)
(0.131742 0 0)
(0.131733 0 0)
(0.131743 0 0)
(0.131732 0 0)
(0.131743 0 0)
(0.131731 0 0)
(0.131744 0 0)
(0.131731 0 0)
(0.131744 0 0)
(0.13173 0 0)
(0.131745 0 0)
(0.131729 0 0)
(0.131746 0 0)
(0.131728 0 0)
(0.131746 0 0)
(0.131727 0 0)
(0.131747 0 0)
(0.131726 0 0)
(0.131748 0 0)
(0.131725 0 0)
(0.131749 0 0)
(0.131724 0 0)
(0.131749 0 0)
(0.131723 0 0)
(0.13175 0 0)
(0.131722 0 0)
(0.131751 0 0)
(0.13172 0 0)
(0.131752 0 0)
(0.131719 0 0)
(0.131753 0 0)
(0.131717 0 0)
(0.131754 0 0)
(0.131716 0 0)
(0.131755 0 0)
(0.131714 0 0)
(0.131756 0 0)
(0.131712 0 0)
(0.131757 0 0)
(0.13171 0 0)
(0.131758 0 0)
(0.131708 0 0)
(0.131759 0 0)
(0.131706 0 0)
(0.13176 0 0)
(0.131704 0 0)
(0.131761 0 0)
(0.131702 0 0)
(0.131762 0 0)
(0.1317 0 0)
)
;

boundaryField
{
    topWall
    {
        type            empty;
    }
    bottomWall
    {
        type            empty;
    }
    leftAndRight_half1
    {
        type            cyclic;
    }
    leftAndRight_half0
    {
        type            cyclic;
    }
    frontAndBack
    {
        type            empty;
    }
}


// ************************************************************************* //
