/*--------------------------------*- C++ -*----------------------------------*\
  =========                 |
  \\      /  F ield         | OpenFOAM: The Open Source CFD Toolbox
   \\    /   O peration     | Website:  https://openfoam.org
    \\  /    A nd           | Version:  9
     \\/     M anipulation  |
\*---------------------------------------------------------------------------*/
FoamFile
{
    format      ascii;
    class       volScalarField;
    location    "0.35";
    object      f_0;
}
// * * * * * * * * * * * * * * * * * * * * * * * * * * * * * * * * * * * * * //

dimensions      [1 -3 0 0 0 0 0];

internalField   nonuniform List<scalar> 
1000
(
666.667
666.667
666.667
666.667
666.667
666.667
666.667
666.667
666.667
666.667
666.667
666.667
666.667
666.667
666.667
666.667
666.667
666.667
666.667
666.667
666.667
666.667
666.667
666.667
666.667
666.667
666.667
666.667
666.667
666.667
666.667
666.667
666.667
666.667
666.667
666.667
666.667
666.667
666.667
666.667
666.667
666.667
666.667
666.667
666.667
666.667
666.667
666.667
666.667
666.667
666.667
666.667
666.667
666.667
666.667
666.667
666.667
666.667
666.667
666.667
666.667
666.667
666.667
666.667
666.667
666.667
666.667
666.667
666.667
666.667
666.667
666.667
666.667
666.667
666.667
666.667
666.667
666.667
666.667
666.667
666.667
666.667
666.667
666.667
666.667
666.667
666.667
666.667
666.667
666.667
666.667
666.667
666.667
666.667
666.667
666.667
666.667
666.667
666.667
666.667
666.667
666.667
666.667
666.667
666.667
666.667
666.667
666.667
666.667
666.667
666.667
666.667
666.667
666.667
666.667
666.667
666.667
666.667
666.667
666.667
666.667
666.667
666.667
666.667
666.667
666.667
666.667
666.667
666.667
666.667
666.667
666.667
666.667
666.667
666.667
666.667
666.667
666.667
666.667
666.667
666.667
666.667
666.667
666.667
666.667
666.667
666.667
666.667
666.667
666.667
666.667
666.667
666.667
666.667
666.667
666.667
666.667
666.667
666.667
666.667
666.667
666.667
666.667
666.667
666.667
666.667
666.667
666.667
666.667
666.667
666.667
666.667
666.667
666.667
666.667
666.667
666.667
666.667
666.667
666.667
666.667
666.667
666.667
666.667
666.667
666.667
666.667
666.667
666.667
666.667
666.667
666.667
666.667
666.667
666.667
666.667
666.667
666.667
666.667
666.667
666.667
666.667
666.667
666.667
666.667
666.667
666.667
666.667
666.667
666.667
666.667
666.667
666.667
666.667
666.667
666.667
666.667
666.667
666.667
666.667
666.667
666.667
666.667
666.667
666.667
666.667
666.666
666.666
666.666
666.666
666.666
666.666
666.666
666.666
666.666
666.666
666.666
666.666
666.666
666.666
666.666
666.666
666.666
666.666
666.666
666.666
666.666
666.666
666.666
666.666
666.666
666.666
666.666
666.666
666.666
666.666
666.666
666.666
666.666
666.666
666.666
666.666
666.665
666.665
666.665
666.665
666.665
666.665
666.665
666.665
666.665
666.665
666.665
666.665
666.665
666.664
666.664
666.664
666.664
666.664
666.664
666.664
666.664
666.663
666.663
666.663
666.663
666.663
666.663
666.663
666.662
666.662
666.662
666.662
666.662
666.661
666.661
666.661
666.661
666.66
666.66
666.66
666.66
666.659
666.659
666.659
666.659
666.658
666.658
666.658
666.657
666.657
666.657
666.656
666.656
666.656
666.655
666.655
666.654
666.654
666.653
666.653
666.653
666.652
666.652
666.651
666.651
666.65
666.65
666.649
666.649
666.648
666.647
666.647
666.646
666.646
666.645
666.644
666.644
666.643
666.642
666.642
666.641
666.64
666.64
666.639
666.638
666.637
666.637
666.636
666.635
666.634
666.633
666.633
666.632
666.631
666.63
666.629
666.628
666.627
666.627
666.626
666.625
666.624
666.623
666.622
666.621
666.62
666.619
666.618
666.617
666.616
666.615
666.614
666.613
666.612
666.611
666.61
666.609
666.608
666.607
666.605
666.604
666.603
666.602
666.601
666.6
666.599
666.598
666.597
666.595
666.594
666.593
666.592
666.591
666.59
666.589
666.587
666.586
666.585
666.584
666.583
666.582
666.58
666.579
666.578
666.577
666.576
666.575
666.573
666.572
666.571
666.57
666.569
666.568
666.567
666.565
666.564
666.563
666.562
666.561
666.56
666.559
666.557
666.556
666.555
666.554
666.553
666.552
666.551
666.55
666.549
666.547
666.546
666.545
666.544
666.543
666.542
666.541
666.54
666.539
666.538
666.537
666.536
666.535
666.534
666.533
666.532
666.531
666.53
666.529
666.528
666.527
666.526
666.525
666.524
666.523
666.522
666.521
666.52
666.52
666.519
666.518
666.517
666.516
666.515
666.514
666.513
666.513
666.512
666.511
666.51
666.509
666.509
666.508
666.507
666.506
666.505
666.505
666.504
666.503
666.502
666.502
666.501
666.5
666.499
666.499
666.498
666.497
666.497
666.496
666.495
666.495
666.494
666.493
666.493
666.492
666.492
666.491
666.49
666.49
666.489
666.489
666.488
666.487
666.487
666.486
666.486
666.485
666.485
666.484
666.484
666.483
666.483
666.482
666.482
666.481
666.481
666.48
666.48
666.479
666.479
666.478
666.478
666.477
666.477
666.477
666.476
666.476
666.475
666.475
666.475
666.474
666.474
666.473
666.473
666.473
666.472
666.472
666.472
666.471
666.471
666.471
666.47
666.47
666.47
666.47
666.469
666.469
666.469
666.469
666.468
666.468
666.468
666.468
666.467
666.467
666.467
666.467
666.467
666.467
666.466
666.466
666.466
666.466
666.466
666.466
666.466
666.466
666.466
666.466
666.465
666.465
666.465
666.465
666.465
666.466
666.466
666.466
666.466
666.466
666.466
666.466
666.466
666.467
666.467
666.467
666.467
666.468
666.468
666.468
666.469
666.469
666.47
666.47
666.471
666.471
666.472
666.473
666.473
666.474
666.475
666.476
666.477
666.478
666.479
666.48
666.481
666.483
666.484
666.486
666.487
666.489
666.491
666.493
666.495
666.497
666.499
666.501
666.504
666.507
666.51
666.513
666.516
666.519
666.523
666.527
666.531
666.535
666.54
666.545
666.55
666.555
666.561
666.567
666.573
666.58
666.587
666.595
666.603
666.611
666.62
666.629
666.639
666.649
666.66
666.672
666.684
666.696
666.709
666.723
666.738
666.753
666.768
666.785
666.802
666.82
666.838
666.857
666.877
666.898
666.919
666.94
666.963
666.985
667.009
667.032
667.057
667.081
667.105
667.13
667.155
667.18
667.204
667.229
667.252
667.276
667.298
667.32
667.341
667.361
667.38
667.397
667.413
667.427
667.44
667.451
667.46
667.468
667.473
667.477
667.478
667.478
667.476
667.471
667.465
667.457
667.448
667.436
667.423
667.409
667.394
667.377
667.36
667.341
667.322
667.302
667.281
667.26
667.239
667.218
667.196
667.175
667.154
667.133
667.112
667.091
667.071
667.052
667.033
667.014
666.997
666.979
666.962
666.946
666.931
666.916
666.902
666.888
666.875
666.863
666.851
666.84
666.83
666.82
666.81
666.801
666.792
666.784
666.777
666.77
666.763
666.757
666.751
666.745
666.74
666.735
666.73
666.726
666.722
666.718
666.715
666.711
666.708
666.705
666.703
666.7
666.698
666.695
666.693
666.692
666.69
666.688
666.687
666.685
666.684
666.683
666.681
666.68
666.679
666.678
666.677
666.677
666.676
666.675
666.675
666.674
666.673
666.673
666.672
666.672
666.672
666.671
666.671
666.671
666.67
666.67
666.67
666.67
666.669
666.669
666.669
666.669
666.669
666.668
666.668
666.668
666.668
666.668
666.668
666.668
666.668
666.668
666.668
666.667
666.667
666.667
666.667
666.667
666.667
666.667
666.667
666.667
666.667
666.667
666.667
666.667
666.667
666.667
666.667
666.667
666.667
666.667
666.667
666.667
666.667
666.667
666.667
666.667
666.667
666.667
666.667
666.667
666.667
666.667
666.667
666.667
666.667
666.667
666.667
666.667
666.667
666.667
666.667
666.667
666.667
666.667
666.667
666.667
666.667
666.667
666.667
666.667
666.667
666.667
666.667
666.667
666.667
666.667
666.667
666.667
666.667
666.667
666.667
666.667
666.667
666.667
666.667
666.667
666.667
666.667
666.667
666.667
666.667
666.667
666.667
666.667
666.667
666.667
666.667
666.667
666.667
666.667
666.667
666.667
666.667
666.667
666.667
666.667
666.667
666.667
666.667
666.667
666.667
666.667
666.667
666.667
666.667
666.667
666.667
666.667
666.667
666.667
666.667
666.667
666.667
666.667
666.667
666.667
666.667
666.667
666.667
666.667
666.667
666.667
666.667
666.667
666.667
666.667
666.667
666.667
666.667
666.667
666.667
666.667
666.667
666.667
666.667
666.667
666.667
666.667
666.667
666.667
666.667
666.667
666.667
666.667
666.667
666.667
666.667
666.667
666.667
666.667
666.667
666.667
666.667
666.667
666.667
666.667
666.667
666.667
666.667
666.667
666.667
666.667
666.667
666.667
666.667
666.667
666.667
666.667
666.667
666.667
666.667
666.667
666.667
666.667
666.667
666.667
666.667
666.667
666.667
666.667
666.667
666.667
666.667
666.667
666.667
666.667
666.667
666.667
666.667
666.667
666.667
666.667
666.667
666.667
666.667
666.667
666.667
666.667
666.667
666.667
666.667
666.667
666.667
666.667
666.667
666.667
666.667
)
;

boundaryField
{
    topWall
    {
        type            empty;
    }
    bottomWall
    {
        type            empty;
    }
    leftAndRight_half1
    {
        type            cyclic;
    }
    leftAndRight_half0
    {
        type            cyclic;
    }
    frontAndBack
    {
        type            empty;
    }
}


// ************************************************************************* //
