/*--------------------------------*- C++ -*----------------------------------*\
  =========                 |
  \\      /  F ield         | OpenFOAM: The Open Source CFD Toolbox
   \\    /   O peration     | Website:  https://openfoam.org
    \\  /    A nd           | Version:  9
     \\/     M anipulation  |
\*---------------------------------------------------------------------------*/
FoamFile
{
    format      ascii;
    class       volScalarField;
    location    "0.35";
    object      f_1;
}
// * * * * * * * * * * * * * * * * * * * * * * * * * * * * * * * * * * * * * //

dimensions      [1 -3 0 0 0 0 0];

internalField   nonuniform List<scalar> 
1000
(
168.881
168.881
168.881
168.881
168.881
168.881
168.881
168.881
168.881
168.881
168.881
168.881
168.881
168.881
168.881
168.881
168.881
168.881
168.881
168.881
168.881
168.881
168.881
168.881
168.881
168.881
168.881
168.881
168.881
168.881
168.881
168.881
168.881
168.881
168.881
168.881
168.881
168.881
168.881
168.881
168.881
168.881
168.881
168.881
168.881
168.881
168.881
168.881
168.881
168.881
168.881
168.881
168.881
168.881
168.881
168.881
168.881
168.881
168.881
168.881
168.881
168.881
168.881
168.881
168.881
168.881
168.881
168.881
168.881
168.881
168.881
168.881
168.881
168.881
168.881
168.881
168.881
168.881
168.881
168.881
168.881
168.881
168.881
168.881
168.881
168.881
168.881
168.881
168.881
168.881
168.881
168.881
168.881
168.881
168.881
168.881
168.881
168.881
168.881
168.881
168.881
168.881
168.881
168.881
168.881
168.881
168.881
168.881
168.881
168.881
168.881
168.881
168.881
168.881
168.881
168.881
168.881
168.881
168.881
168.881
168.881
168.881
168.881
168.881
168.881
168.881
168.881
168.881
168.881
168.881
168.881
168.881
168.881
168.881
168.881
168.881
168.881
168.881
168.881
168.881
168.881
168.881
168.881
168.881
168.881
168.881
168.881
168.881
168.881
168.881
168.881
168.881
168.881
168.881
168.881
168.881
168.881
168.881
168.881
168.881
168.881
168.881
168.881
168.881
168.881
168.881
168.881
168.881
168.881
168.881
168.881
168.881
168.881
168.881
168.881
168.881
168.881
168.881
168.881
168.881
168.881
168.881
168.881
168.881
168.881
168.881
168.881
168.881
168.881
168.881
168.881
168.881
168.881
168.881
168.881
168.881
168.881
168.881
168.881
168.881
168.881
168.881
168.881
168.881
168.881
168.881
168.882
168.882
168.882
168.882
168.882
168.882
168.882
168.882
168.882
168.882
168.882
168.882
168.882
168.882
168.882
168.882
168.882
168.882
168.882
168.882
168.882
168.883
168.883
168.883
168.883
168.883
168.883
168.883
168.883
168.883
168.883
168.884
168.884
168.884
168.884
168.884
168.885
168.885
168.885
168.885
168.885
168.886
168.886
168.886
168.886
168.887
168.887
168.887
168.888
168.888
168.889
168.889
168.89
168.89
168.891
168.891
168.892
168.892
168.893
168.893
168.894
168.895
168.896
168.896
168.897
168.898
168.899
168.9
168.901
168.902
168.903
168.904
168.905
168.907
168.908
168.909
168.911
168.912
168.914
168.915
168.917
168.919
168.921
168.923
168.925
168.927
168.929
168.931
168.934
168.936
168.939
168.942
168.944
168.947
168.95
168.953
168.957
168.96
168.964
168.967
168.971
168.975
168.979
168.984
168.988
168.993
168.997
169.002
169.008
169.013
169.018
169.024
169.03
169.036
169.042
169.049
169.056
169.063
169.07
169.077
169.085
169.093
169.101
169.11
169.118
169.127
169.137
169.146
169.156
169.166
169.177
169.187
169.198
169.21
169.221
169.234
169.246
169.259
169.272
169.285
169.299
169.313
169.328
169.343
169.358
169.374
169.39
169.407
169.424
169.441
169.459
169.477
169.496
169.515
169.534
169.554
169.575
169.596
169.617
169.639
169.662
169.685
169.708
169.732
169.756
169.781
169.806
169.832
169.859
169.886
169.913
169.941
169.97
169.999
170.029
170.059
170.09
170.121
170.153
170.185
170.219
170.252
170.286
170.321
170.356
170.392
170.429
170.466
170.504
170.542
170.581
170.62
170.66
170.701
170.742
170.784
170.827
170.87
170.914
170.958
171.003
171.048
171.094
171.141
171.188
171.236
171.285
171.334
171.384
171.434
171.485
171.537
171.589
171.642
171.695
171.75
171.804
171.859
171.915
171.972
172.029
172.086
172.145
172.203
172.263
172.323
172.383
172.445
172.506
172.569
172.632
172.695
172.759
172.824
172.889
172.955
173.021
173.088
173.156
173.224
173.292
173.362
173.431
173.502
173.572
173.644
173.716
173.788
173.861
173.934
174.008
174.083
174.158
174.234
174.31
174.386
174.463
174.541
174.619
174.698
174.777
174.856
174.936
175.017
175.098
175.179
175.261
175.344
175.427
175.51
175.594
175.678
175.763
175.848
175.934
176.02
176.106
176.193
176.281
176.369
176.457
176.545
176.635
176.724
176.814
176.904
176.995
177.086
177.178
177.27
177.362
177.455
177.548
177.641
177.735
177.829
177.924
178.019
178.114
178.21
178.306
178.403
178.499
178.597
178.694
178.792
178.89
178.989
179.087
179.187
179.286
179.386
179.486
179.587
179.687
179.789
179.89
179.992
180.094
180.196
180.299
180.402
180.505
180.608
180.712
180.816
180.921
181.025
181.13
181.235
181.341
181.447
181.552
181.659
181.765
181.872
181.979
182.086
182.194
182.301
182.409
182.517
182.626
182.734
182.843
182.952
183.061
183.171
183.28
183.39
183.5
183.61
183.721
183.831
183.942
184.053
184.164
184.275
184.387
184.498
184.61
184.722
184.834
184.946
185.058
185.17
185.283
185.395
185.508
185.62
185.733
185.846
185.959
186.071
186.184
186.297
186.41
186.523
186.636
186.749
186.862
186.974
187.087
187.2
187.312
187.425
187.537
187.649
187.761
187.873
187.984
188.096
188.207
188.318
188.428
188.538
188.648
188.757
188.866
188.974
189.082
189.19
189.296
189.403
189.508
189.613
189.716
189.82
189.922
190.023
190.123
190.222
190.32
190.416
190.512
190.606
190.698
190.789
190.878
190.965
191.05
191.133
191.214
191.293
191.369
191.443
191.513
191.581
191.646
191.707
191.765
191.82
191.87
191.916
191.958
191.995
192.027
192.055
192.076
192.093
192.103
192.106
192.103
192.094
192.076
192.052
192.019
191.977
191.927
191.868
191.8
191.721
191.632
191.533
191.422
191.3
191.166
191.021
190.862
190.692
190.508
190.311
190.1
189.876
189.639
189.387
189.122
188.843
188.551
188.245
187.926
187.594
187.249
186.893
186.525
186.146
185.757
185.358
184.95
184.535
184.113
183.684
183.251
182.814
182.374
181.932
181.49
181.047
180.607
180.169
179.734
179.304
178.879
178.46
178.049
177.645
177.25
176.864
176.488
176.122
175.767
175.423
175.089
174.768
174.458
174.159
173.872
173.597
173.334
173.081
172.84
172.611
172.392
172.183
171.985
171.797
171.619
171.45
171.29
171.138
170.996
170.861
170.733
170.614
170.501
170.394
170.295
170.201
170.113
170.03
169.952
169.88
169.812
169.748
169.688
169.632
169.58
169.532
169.486
169.444
169.404
169.367
169.332
169.3
169.27
169.242
169.216
169.192
169.17
169.149
169.129
169.111
169.094
169.078
169.064
169.05
169.038
169.026
169.015
169.005
168.996
168.988
168.98
168.972
168.965
168.959
168.953
168.948
168.943
168.938
168.934
168.93
168.926
168.922
168.919
168.916
168.914
168.911
168.909
168.907
168.905
168.903
168.901
168.9
168.898
168.897
168.896
168.894
168.893
168.892
168.892
168.891
168.89
168.889
168.889
168.888
168.888
168.887
168.887
168.886
168.886
168.885
168.885
168.885
168.884
168.884
168.884
168.884
168.884
168.883
168.883
168.883
168.883
168.883
168.883
168.882
168.882
168.882
168.882
168.882
168.882
168.882
168.882
168.882
168.882
168.882
168.882
168.882
168.882
168.882
168.882
168.882
168.882
168.881
168.881
168.881
168.881
168.881
168.881
168.881
168.881
168.881
168.881
168.881
168.881
168.881
168.881
168.881
168.881
168.881
168.881
168.881
168.881
168.881
168.881
168.881
168.881
168.881
168.881
168.881
168.881
168.881
168.881
168.881
168.881
168.881
168.881
168.881
168.881
168.881
168.881
168.881
168.881
168.881
168.881
168.881
168.881
168.881
168.881
168.881
168.881
168.881
168.881
168.881
168.881
168.881
168.881
168.881
168.881
168.881
168.881
168.881
168.881
168.881
168.881
168.881
168.881
168.881
168.881
168.881
168.881
168.881
168.881
168.881
168.881
168.881
168.881
168.881
168.881
168.881
168.881
168.881
168.881
168.881
168.881
168.881
168.881
168.881
168.881
168.881
168.881
168.881
168.881
168.881
168.881
168.881
168.881
168.881
168.881
168.881
168.881
168.881
168.881
168.881
168.881
168.881
168.881
168.881
168.881
168.881
168.881
168.881
168.881
168.881
168.881
168.881
168.881
168.881
168.881
168.881
168.881
168.881
168.881
168.881
168.881
168.881
168.881
168.881
168.881
168.881
168.881
168.881
168.881
168.881
168.881
168.881
168.881
168.881
168.881
168.881
168.881
168.881
168.881
168.881
168.881
168.881
168.881
168.881
168.881
168.881
168.881
168.881
168.881
168.881
168.881
168.881
168.881
168.881
168.881
168.881
168.881
168.881
168.881
168.881
)
;

boundaryField
{
    topWall
    {
        type            empty;
    }
    bottomWall
    {
        type            empty;
    }
    leftAndRight_half1
    {
        type            cyclic;
    }
    leftAndRight_half0
    {
        type            cyclic;
    }
    frontAndBack
    {
        type            empty;
    }
}


// ************************************************************************* //
