/*--------------------------------*- C++ -*----------------------------------*\
  =========                 |
  \\      /  F ield         | OpenFOAM: The Open Source CFD Toolbox
   \\    /   O peration     | Website:  https://openfoam.org
    \\  /    A nd           | Version:  9
     \\/     M anipulation  |
\*---------------------------------------------------------------------------*/
FoamFile
{
    format      ascii;
    class       volScalarField;
    location    "0.35";
    object      f_2;
}
// * * * * * * * * * * * * * * * * * * * * * * * * * * * * * * * * * * * * * //

dimensions      [1 -3 0 0 0 0 0];

internalField   nonuniform List<scalar> 
1000
(
164.481
164.481
164.481
164.481
164.481
164.481
164.481
164.481
164.481
164.481
164.481
164.481
164.481
164.481
164.481
164.481
164.481
164.481
164.481
164.481
164.481
164.481
164.481
164.481
164.481
164.481
164.481
164.481
164.481
164.481
164.481
164.481
164.481
164.481
164.481
164.481
164.481
164.481
164.481
164.481
164.481
164.481
164.481
164.481
164.481
164.481
164.481
164.481
164.481
164.481
164.481
164.481
164.481
164.481
164.481
164.481
164.481
164.481
164.481
164.481
164.481
164.481
164.481
164.481
164.481
164.481
164.481
164.481
164.481
164.481
164.481
164.481
164.481
164.481
164.481
164.481
164.481
164.481
164.481
164.481
164.481
164.481
164.481
164.481
164.481
164.481
164.481
164.481
164.481
164.481
164.481
164.481
164.481
164.481
164.481
164.481
164.481
164.481
164.481
164.481
164.481
164.481
164.481
164.481
164.481
164.481
164.481
164.481
164.481
164.481
164.481
164.481
164.481
164.481
164.481
164.481
164.481
164.481
164.481
164.481
164.481
164.481
164.481
164.481
164.481
164.481
164.481
164.481
164.481
164.481
164.481
164.481
164.481
164.481
164.481
164.481
164.481
164.481
164.481
164.481
164.481
164.481
164.481
164.481
164.481
164.481
164.481
164.481
164.481
164.481
164.481
164.481
164.481
164.481
164.481
164.481
164.481
164.481
164.481
164.481
164.481
164.481
164.481
164.481
164.481
164.481
164.481
164.481
164.481
164.481
164.481
164.481
164.481
164.481
164.481
164.481
164.481
164.481
164.481
164.481
164.481
164.481
164.481
164.481
164.481
164.481
164.481
164.481
164.481
164.481
164.481
164.481
164.481
164.481
164.481
164.481
164.481
164.481
164.481
164.481
164.481
164.481
164.481
164.481
164.481
164.481
164.481
164.481
164.481
164.481
164.481
164.481
164.481
164.481
164.481
164.48
164.48
164.48
164.48
164.48
164.48
164.48
164.48
164.48
164.48
164.48
164.48
164.48
164.48
164.479
164.479
164.479
164.479
164.479
164.479
164.479
164.479
164.478
164.478
164.478
164.478
164.478
164.477
164.477
164.477
164.477
164.476
164.476
164.476
164.476
164.475
164.475
164.474
164.474
164.474
164.473
164.473
164.472
164.472
164.471
164.471
164.47
164.47
164.469
164.468
164.467
164.467
164.466
164.465
164.464
164.463
164.462
164.461
164.46
164.459
164.458
164.457
164.456
164.454
164.453
164.452
164.45
164.449
164.447
164.445
164.443
164.442
164.44
164.438
164.435
164.433
164.431
164.429
164.426
164.424
164.421
164.418
164.415
164.412
164.409
164.406
164.402
164.399
164.395
164.391
164.387
164.383
164.379
164.375
164.37
164.365
164.36
164.355
164.35
164.344
164.339
164.333
164.327
164.321
164.314
164.307
164.301
164.293
164.286
164.278
164.271
164.262
164.254
164.245
164.237
164.227
164.218
164.208
164.198
164.188
164.177
164.166
164.155
164.144
164.132
164.119
164.107
164.094
164.081
164.067
164.053
164.039
164.024
164.009
163.994
163.978
163.961
163.945
163.928
163.91
163.892
163.874
163.855
163.836
163.816
163.796
163.776
163.755
163.733
163.712
163.689
163.666
163.643
163.619
163.595
163.57
163.545
163.519
163.493
163.466
163.439
163.411
163.383
163.354
163.325
163.295
163.264
163.233
163.202
163.17
163.137
163.104
163.071
163.037
163.002
162.967
162.931
162.894
162.858
162.82
162.782
162.744
162.704
162.665
162.625
162.584
162.542
162.501
162.458
162.415
162.371
162.327
162.283
162.237
162.192
162.145
162.099
162.051
162.003
161.955
161.906
161.856
161.806
161.755
161.704
161.652
161.6
161.547
161.494
161.44
161.385
161.331
161.275
161.219
161.163
161.106
161.048
160.99
160.932
160.873
160.813
160.753
160.693
160.632
160.571
160.509
160.446
160.384
160.32
160.257
160.192
160.128
160.063
159.997
159.931
159.865
159.798
159.73
159.663
159.594
159.526
159.457
159.387
159.318
159.247
159.177
159.106
159.034
158.963
158.89
158.818
158.745
158.672
158.598
158.524
158.45
158.375
158.3
158.224
158.149
158.073
157.996
157.919
157.842
157.765
157.687
157.609
157.531
157.452
157.373
157.294
157.215
157.135
157.055
156.974
156.894
156.813
156.732
156.65
156.568
156.486
156.404
156.322
156.239
156.156
156.073
155.989
155.906
155.822
155.738
155.653
155.569
155.484
155.399
155.314
155.229
155.143
155.057
154.971
154.885
154.799
154.712
154.626
154.539
154.452
154.365
154.277
154.19
154.102
154.014
153.926
153.838
153.75
153.661
153.573
153.484
153.395
153.307
153.217
153.128
153.039
152.95
152.86
152.771
152.681
152.591
152.501
152.411
152.321
152.231
152.141
152.05
151.96
151.869
151.779
151.688
151.598
151.507
151.416
151.325
151.234
151.144
151.053
150.962
150.871
150.78
150.689
150.598
150.507
150.416
150.325
150.234
150.143
150.052
149.961
149.87
149.779
149.688
149.597
149.507
149.416
149.325
149.235
149.144
149.054
148.964
148.874
148.784
148.694
148.604
148.515
148.425
148.336
148.247
148.158
148.07
147.982
147.894
147.806
147.718
147.631
147.544
147.458
147.371
147.286
147.2
147.115
147.031
146.947
146.863
146.78
146.698
146.616
146.535
146.455
146.375
146.296
146.218
146.141
146.064
145.989
145.914
145.841
145.769
145.698
145.628
145.56
145.493
145.427
145.363
145.301
145.241
145.182
145.126
145.071
145.019
144.969
144.922
144.877
144.835
144.796
144.759
144.727
144.697
144.671
144.649
144.631
144.617
144.608
144.603
144.603
144.609
144.619
144.636
144.658
144.686
144.721
144.763
144.812
144.868
144.932
145.004
145.084
145.173
145.27
145.377
145.494
145.62
145.756
145.903
146.06
146.227
146.406
146.596
146.797
147.009
147.232
147.467
147.712
147.969
148.237
148.515
148.804
149.103
149.412
149.729
150.056
150.391
150.733
151.082
151.437
151.797
152.162
152.53
152.901
153.274
153.648
154.022
154.396
154.767
155.136
155.502
155.863
156.22
156.571
156.915
157.253
157.583
157.905
158.219
158.524
158.82
159.106
159.383
159.65
159.908
160.155
160.393
160.62
160.838
161.047
161.246
161.435
161.616
161.788
161.951
162.105
162.252
162.391
162.522
162.646
162.763
162.874
162.978
163.076
163.168
163.255
163.337
163.413
163.485
163.553
163.616
163.675
163.73
163.782
163.831
163.876
163.918
163.958
163.995
164.029
164.061
164.091
164.119
164.145
164.169
164.192
164.213
164.232
164.25
164.267
164.283
164.298
164.311
164.324
164.335
164.346
164.356
164.366
164.374
164.382
164.39
164.397
164.403
164.409
164.414
164.419
164.424
164.428
164.432
164.436
164.44
164.443
164.446
164.449
164.451
164.453
164.456
164.458
164.459
164.461
164.463
164.464
164.465
164.467
164.468
164.469
164.47
164.471
164.472
164.472
164.473
164.474
164.474
164.475
164.475
164.476
164.476
164.477
164.477
164.477
164.478
164.478
164.478
164.478
164.479
164.479
164.479
164.479
164.479
164.479
164.48
164.48
164.48
164.48
164.48
164.48
164.48
164.48
164.48
164.48
164.481
164.481
164.481
164.481
164.481
164.481
164.481
164.481
164.481
164.481
164.481
164.481
164.481
164.481
164.481
164.481
164.481
164.481
164.481
164.481
164.481
164.481
164.481
164.481
164.481
164.481
164.481
164.481
164.481
164.481
164.481
164.481
164.481
164.481
164.481
164.481
164.481
164.481
164.481
164.481
164.481
164.481
164.481
164.481
164.481
164.481
164.481
164.481
164.481
164.481
164.481
164.481
164.481
164.481
164.481
164.481
164.481
164.481
164.481
164.481
164.481
164.481
164.481
164.481
164.481
164.481
164.481
164.481
164.481
164.481
164.481
164.481
164.481
164.481
164.481
164.481
164.481
164.481
164.481
164.481
164.481
164.481
164.481
164.481
164.481
164.481
164.481
164.481
164.481
164.481
164.481
164.481
164.481
164.481
164.481
164.481
164.481
164.481
164.481
164.481
164.481
164.481
164.481
164.481
164.481
164.481
164.481
164.481
164.481
164.481
164.481
164.481
164.481
164.481
164.481
164.481
164.481
164.481
164.481
164.481
164.481
164.481
164.481
164.481
164.481
164.481
164.481
164.481
164.481
164.481
164.481
164.481
164.481
164.481
164.481
164.481
164.481
164.481
164.481
164.481
164.481
164.481
164.481
164.481
164.481
164.481
164.481
164.481
164.481
164.481
164.481
164.481
164.481
164.481
164.481
164.481
164.481
164.481
164.481
164.481
164.481
164.481
164.481
164.481
164.481
164.481
164.481
164.481
164.481
164.481
164.481
164.481
164.481
164.481
)
;

boundaryField
{
    topWall
    {
        type            empty;
    }
    bottomWall
    {
        type            empty;
    }
    leftAndRight_half1
    {
        type            cyclic;
    }
    leftAndRight_half0
    {
        type            cyclic;
    }
    frontAndBack
    {
        type            empty;
    }
}


// ************************************************************************* //
