/*--------------------------------*- C++ -*----------------------------------*\
  =========                 |
  \\      /  F ield         | OpenFOAM: The Open Source CFD Toolbox
   \\    /   O peration     | Website:  https://openfoam.org
    \\  /    A nd           | Version:  9
     \\/     M anipulation  |
\*---------------------------------------------------------------------------*/
FoamFile
{
    format      ascii;
    class       volScalarField;
    location    "0.35";
    object      p;
}
// * * * * * * * * * * * * * * * * * * * * * * * * * * * * * * * * * * * * * //

dimensions      [1 -1 -2 0 0 0 0];

internalField   nonuniform List<scalar> 
1000
(
100097
100097
100097
100097
100097
100097
100097
100097
100097
100097
100097
100097
100097
100097
100097
100097
100097
100097
100097
100097
100097
100097
100097
100097
100097
100097
100097
100097
100097
100097
100097
100097
100097
100097
100097
100097
100097
100097
100097
100097
100097
100097
100097
100097
100097
100097
100097
100097
100097
100097
100097
100097
100097
100097
100097
100097
100097
100097
100097
100097
100097
100097
100097
100097
100097
100097
100097
100097
100097
100097
100097
100097
100097
100097
100097
100097
100097
100097
100097
100097
100097
100097
100097
100097
100097
100097
100097
100097
100097
100097
100097
100097
100097
100097
100097
100097
100097
100097
100097
100097
100097
100097
100097
100097
100097
100097
100097
100097
100097
100097
100097
100097
100097
100097
100097
100097
100097
100097
100097
100097
100097
100097
100097
100097
100097
100097
100097
100097
100097
100097
100097
100097
100097
100097
100097
100097
100097
100097
100097
100097
100097
100097
100097
100097
100097
100097
100097
100097
100097
100097
100097
100097
100097
100097
100097
100097
100097
100097
100097
100097
100097
100097
100097
100097
100097
100097
100097
100097
100097
100097
100097
100097
100097
100097
100097
100097
100097
100097
100097
100097
100097
100097
100097
100097
100097
100097
100097
100097
100097
100097
100097
100097
100097
100097
100097
100097
100097
100097
100097
100097
100097
100097
100097
100097
100097
100096
100096
100096
100096
100096
100096
100096
100096
100096
100096
100096
100096
100096
100096
100096
100096
100096
100096
100096
100096
100096
100096
100096
100095
100095
100095
100095
100095
100095
100095
100095
100095
100095
100094
100094
100094
100094
100094
100094
100094
100093
100093
100093
100093
100093
100092
100092
100092
100092
100091
100091
100091
100090
100090
100090
100089
100089
100089
100088
100088
100087
100087
100086
100086
100085
100085
100084
100084
100083
100082
100082
100081
100080
100080
100079
100078
100077
100076
100075
100074
100073
100072
100071
100070
100069
100068
100067
100066
100064
100063
100062
100060
100059
100057
100056
100054
100052
100051
100049
100047
100045
100043
100041
100039
100037
100035
100033
100031
100029
100026
100024
100021
100019
100016
100014
100011
100008
100005
100003
99999.6
99996.6
99993.5
99990.4
99987.2
99984
99980.7
99977.3
99973.9
99970.4
99966.9
99963.3
99959.6
99955.9
99952.1
99948.3
99944.4
99940.5
99936.5
99932.4
99928.4
99924.2
99920.1
99915.8
99911.6
99907.3
99902.9
99898.5
99894.1
99889.6
99885.2
99880.6
99876.1
99871.5
99866.9
99862.3
99857.7
99853.1
99848.4
99843.8
99839.1
99834.5
99829.8
99825.2
99820.5
99815.9
99811.3
99806.7
99802.1
99797.5
99793
99788.5
99784.1
99779.7
99775.3
99771
99766.8
99762.6
99758.4
99754.4
99750.4
99746.5
99742.7
99738.9
99735.2
99731.7
99728.2
99724.9
99721.6
99718.5
99715.5
99712.6
99709.8
99707.2
99704.7
99702.3
99700.1
99698.1
99696.2
99694.5
99692.9
99691.5
99690.3
99689.3
99688.5
99687.8
99687.4
99687.1
99687.1
99687.3
99687.7
99688.3
99689.1
99690.2
99691.5
99693.1
99694.9
99696.9
99699.2
99701.8
99704.6
99707.7
99711.1
99714.8
99718.7
99723
99727.5
99732.3
99737.4
99742.9
99748.6
99754.7
99761
99767.7
99774.7
99782.1
99789.8
99797.8
99806.2
99814.9
99824
99833.4
99843.2
99853.3
99863.9
99874.7
99886
99897.6
99909.7
99922.1
99934.9
99948
99961.6
99975.6
99990
100005
100020
100036
100052
100068
100085
100102
100120
100138
100156
100175
100195
100215
100235
100256
100277
100299
100321
100343
100366
100390
100414
100438
100463
100488
100514
100540
100567
100594
100622
100650
100679
100708
100738
100768
100798
100829
100861
100893
100926
100959
100992
101026
101061
101096
101132
101168
101204
101241
101279
101317
101356
101395
101435
101475
101516
101557
101598
101641
101684
101727
101771
101815
101860
101905
101951
101998
102045
102092
102140
102189
102238
102288
102338
102389
102440
102492
102544
102597
102650
102704
102759
102814
102869
102925
102982
103039
103097
103155
103214
103273
103333
103393
103454
103516
103578
103640
103704
103767
103831
103896
103961
104027
104094
104160
104228
104296
104364
104433
104503
104573
104644
104715
104787
104859
104932
105005
105079
105154
105229
105304
105380
105457
105534
105611
105689
105768
105847
105927
106007
106088
106169
106251
106333
106415
106499
106582
106667
106751
106837
106922
107008
107095
107182
107270
107358
107446
107535
107624
107714
107804
107895
107986
108077
108169
108261
108354
108447
108540
108634
108728
108822
108916
109011
109106
109201
109296
109392
109488
109583
109679
109775
109871
109967
110063
110159
110254
110349
110445
110539
110634
110727
110821
110913
111005
111097
111187
111276
111364
111450
111536
111619
111701
111781
111859
111934
112007
112077
112144
112207
112267
112323
112375
112423
112465
112502
112534
112559
112578
112590
112595
112592
112581
112562
112533
112495
112447
112390
112321
112242
112152
112051
111938
111814
111678
111531
111372
111202
111021
110830
110628
110416
110195
109966
109728
109484
109233
108976
108715
108450
108182
107911
107640
107368
107097
106827
106559
106295
106033
105776
105524
105276
105035
104800
104571
104349
104133
103926
103725
103532
103346
103168
102997
102833
102677
102528
102386
102251
102122
102000
101884
101774
101670
101572
101479
101391
101309
101231
101157
101088
101023
100962
100904
100851
100800
100753
100708
100667
100628
100591
100557
100525
100495
100467
100441
100417
100395
100373
100354
100335
100318
100302
100288
100274
100261
100249
100238
100228
100218
100209
100201
100193
100186
100179
100173
100168
100162
100157
100153
100149
100145
100141
100138
100135
100132
100129
100127
100124
100122
100120
100118
100117
100115
100114
100112
100111
100110
100109
100108
100107
100106
100106
100105
100104
100104
100103
100103
100102
100102
100101
100101
100101
100100
100100
100100
100100
100099
100099
100099
100099
100099
100099
100098
100098
100098
100098
100098
100098
100098
100098
100098
100098
100097
100097
100097
100097
100097
100097
100097
100097
100097
100097
100097
100097
100097
100097
100097
100097
100097
100097
100097
100097
100097
100097
100097
100097
100097
100097
100097
100097
100097
100097
100097
100097
100097
100097
100097
100097
100097
100097
100097
100097
100097
100097
100097
100097
100097
100097
100097
100097
100097
100097
100097
100097
100097
100097
100097
100097
100097
100097
100097
100097
100097
100097
100097
100097
100097
100097
100097
100097
100097
100097
100097
100097
100097
100097
100097
100097
100097
100097
100097
100097
100097
100097
100097
100097
100097
100097
100097
100097
100097
100097
100097
100097
100097
100097
100097
100097
100097
100097
100097
100097
100097
100097
100097
100097
100097
100097
100097
100097
100097
100097
100097
100097
100097
100097
100097
100097
100097
100097
100097
100097
100097
100097
100097
100097
100097
100097
100097
100097
100097
100097
100097
100097
100097
100097
100097
100097
100097
100097
100097
100097
100097
100097
100097
100097
100097
100097
100097
100097
100097
100097
100097
100097
100097
100097
100097
100097
100097
100097
100097
100097
100097
100097
100097
100097
100097
100097
100097
100097
100097
)
;

boundaryField
{
    topWall
    {
        type            empty;
    }
    bottomWall
    {
        type            empty;
    }
    leftAndRight_half1
    {
        type            cyclic;
    }
    leftAndRight_half0
    {
        type            cyclic;
    }
    frontAndBack
    {
        type            empty;
    }
}


// ************************************************************************* //
