/*--------------------------------*- C++ -*----------------------------------*\
  =========                 |
  \\      /  F ield         | OpenFOAM: The Open Source CFD Toolbox
   \\    /   O peration     | Website:  https://openfoam.org
    \\  /    A nd           | Version:  9
     \\/     M anipulation  |
\*---------------------------------------------------------------------------*/
FoamFile
{
    format      ascii;
    class       volVectorField;
    location    "0.35";
    object      U;
}
// * * * * * * * * * * * * * * * * * * * * * * * * * * * * * * * * * * * * * //

dimensions      [0 1 -1 0 0 0 0];

internalField   nonuniform List<vector> 
1000
(
(0.439989 0 0)
(0.439989 0 0)
(0.439989 0 0)
(0.439989 0 0)
(0.439989 0 0)
(0.439989 0 0)
(0.439989 0 0)
(0.439989 0 0)
(0.439989 0 0)
(0.439989 0 0)
(0.439989 0 0)
(0.439989 0 0)
(0.439989 0 0)
(0.439989 0 0)
(0.439989 0 0)
(0.439989 0 0)
(0.439989 0 0)
(0.439989 0 0)
(0.439989 0 0)
(0.439989 0 0)
(0.439989 0 0)
(0.439989 0 0)
(0.439989 0 0)
(0.439989 0 0)
(0.439989 0 0)
(0.439989 0 0)
(0.439989 0 0)
(0.439989 0 0)
(0.439989 0 0)
(0.439989 0 0)
(0.439989 0 0)
(0.439989 0 0)
(0.439989 0 0)
(0.439989 0 0)
(0.439989 0 0)
(0.439989 0 0)
(0.439989 0 0)
(0.439989 0 0)
(0.439989 0 0)
(0.439989 0 0)
(0.439989 0 0)
(0.439989 0 0)
(0.439989 0 0)
(0.439989 0 0)
(0.439989 0 0)
(0.439989 0 0)
(0.439989 0 0)
(0.439989 0 0)
(0.439989 0 0)
(0.439989 0 0)
(0.439989 0 0)
(0.439989 0 0)
(0.439989 0 0)
(0.439989 0 0)
(0.439989 0 0)
(0.439989 0 0)
(0.439989 0 0)
(0.439989 0 0)
(0.439989 0 0)
(0.439989 0 0)
(0.439989 0 0)
(0.439989 0 0)
(0.439989 0 0)
(0.439989 0 0)
(0.439989 0 0)
(0.439989 0 0)
(0.439989 0 0)
(0.439989 0 0)
(0.439989 0 0)
(0.439989 0 0)
(0.439989 0 0)
(0.439989 0 0)
(0.439989 0 0)
(0.439989 0 0)
(0.439989 0 0)
(0.439989 0 0)
(0.439989 0 0)
(0.439989 0 0)
(0.439989 0 0)
(0.439989 0 0)
(0.439989 0 0)
(0.439989 0 0)
(0.439989 0 0)
(0.439989 0 0)
(0.439989 0 0)
(0.439989 0 0)
(0.439989 0 0)
(0.439989 0 0)
(0.439989 0 0)
(0.439989 0 0)
(0.439989 0 0)
(0.439989 0 0)
(0.439989 0 0)
(0.439989 0 0)
(0.439989 0 0)
(0.439989 0 0)
(0.439989 0 0)
(0.439989 0 0)
(0.439989 0 0)
(0.439989 0 0)
(0.439989 0 0)
(0.439989 0 0)
(0.439989 0 0)
(0.439989 0 0)
(0.439989 0 0)
(0.439989 0 0)
(0.439989 0 0)
(0.439989 0 0)
(0.439989 0 0)
(0.439989 0 0)
(0.439989 0 0)
(0.439989 0 0)
(0.439989 0 0)
(0.439989 0 0)
(0.439989 0 0)
(0.439989 0 0)
(0.439989 0 0)
(0.439989 0 0)
(0.439989 0 0)
(0.439989 0 0)
(0.439989 0 0)
(0.439989 0 0)
(0.439989 0 0)
(0.439989 0 0)
(0.439989 0 0)
(0.439989 0 0)
(0.439989 0 0)
(0.439989 0 0)
(0.439989 0 0)
(0.439989 0 0)
(0.439989 0 0)
(0.439989 0 0)
(0.439989 0 0)
(0.439989 0 0)
(0.439989 0 0)
(0.439989 0 0)
(0.439989 0 0)
(0.439989 0 0)
(0.439989 0 0)
(0.439989 0 0)
(0.439989 0 0)
(0.439989 0 0)
(0.439989 0 0)
(0.439989 0 0)
(0.43999 0 0)
(0.43999 0 0)
(0.43999 0 0)
(0.43999 0 0)
(0.43999 0 0)
(0.43999 0 0)
(0.43999 0 0)
(0.43999 0 0)
(0.43999 0 0)
(0.43999 0 0)
(0.43999 0 0)
(0.43999 0 0)
(0.439991 0 0)
(0.439991 0 0)
(0.439991 0 0)
(0.439991 0 0)
(0.439991 0 0)
(0.439991 0 0)
(0.439992 0 0)
(0.439992 0 0)
(0.439992 0 0)
(0.439992 0 0)
(0.439993 0 0)
(0.439993 0 0)
(0.439993 0 0)
(0.439994 0 0)
(0.439994 0 0)
(0.439994 0 0)
(0.439995 0 0)
(0.439995 0 0)
(0.439996 0 0)
(0.439996 0 0)
(0.439997 0 0)
(0.439998 0 0)
(0.439998 0 0)
(0.439999 0 0)
(0.44 0 0)
(0.440001 0 0)
(0.440002 0 0)
(0.440002 0 0)
(0.440004 0 0)
(0.440005 0 0)
(0.440006 0 0)
(0.440007 0 0)
(0.440009 0 0)
(0.44001 0 0)
(0.440012 0 0)
(0.440013 0 0)
(0.440015 0 0)
(0.440017 0 0)
(0.440019 0 0)
(0.440022 0 0)
(0.440024 0 0)
(0.440026 0 0)
(0.440029 0 0)
(0.440032 0 0)
(0.440035 0 0)
(0.440039 0 0)
(0.440042 0 0)
(0.440046 0 0)
(0.44005 0 0)
(0.440055 0 0)
(0.440059 0 0)
(0.440064 0 0)
(0.44007 0 0)
(0.440075 0 0)
(0.440081 0 0)
(0.440088 0 0)
(0.440095 0 0)
(0.440102 0 0)
(0.44011 0 0)
(0.440118 0 0)
(0.440127 0 0)
(0.440137 0 0)
(0.440147 0 0)
(0.440157 0 0)
(0.440169 0 0)
(0.440181 0 0)
(0.440194 0 0)
(0.440207 0 0)
(0.440222 0 0)
(0.440237 0 0)
(0.440253 0 0)
(0.440271 0 0)
(0.440289 0 0)
(0.440309 0 0)
(0.440329 0 0)
(0.440351 0 0)
(0.440375 0 0)
(0.440399 0 0)
(0.440425 0 0)
(0.440453 0 0)
(0.440482 0 0)
(0.440513 0 0)
(0.440546 0 0)
(0.440581 0 0)
(0.440617 0 0)
(0.440656 0 0)
(0.440697 0 0)
(0.44074 0 0)
(0.440786 0 0)
(0.440834 0 0)
(0.440886 0 0)
(0.440939 0 0)
(0.440996 0 0)
(0.441056 0 0)
(0.441119 0 0)
(0.441186 0 0)
(0.441256 0 0)
(0.44133 0 0)
(0.441408 0 0)
(0.441491 0 0)
(0.441577 0 0)
(0.441668 0 0)
(0.441764 0 0)
(0.441865 0 0)
(0.441971 0 0)
(0.442082 0 0)
(0.4422 0 0)
(0.442323 0 0)
(0.442452 0 0)
(0.442588 0 0)
(0.442731 0 0)
(0.44288 0 0)
(0.443037 0 0)
(0.443202 0 0)
(0.443375 0 0)
(0.443556 0 0)
(0.443746 0 0)
(0.443945 0 0)
(0.444154 0 0)
(0.444372 0 0)
(0.444601 0 0)
(0.44484 0 0)
(0.445091 0 0)
(0.445352 0 0)
(0.445626 0 0)
(0.445913 0 0)
(0.446212 0 0)
(0.446525 0 0)
(0.446852 0 0)
(0.447193 0 0)
(0.447549 0 0)
(0.447921 0 0)
(0.448309 0 0)
(0.448714 0 0)
(0.449136 0 0)
(0.449575 0 0)
(0.450034 0 0)
(0.450512 0 0)
(0.451009 0 0)
(0.451528 0 0)
(0.452067 0 0)
(0.452628 0 0)
(0.453213 0 0)
(0.45382 0 0)
(0.454452 0 0)
(0.455109 0 0)
(0.455791 0 0)
(0.4565 0 0)
(0.457237 0 0)
(0.458002 0 0)
(0.458796 0 0)
(0.45962 0 0)
(0.460475 0 0)
(0.461361 0 0)
(0.462281 0 0)
(0.463234 0 0)
(0.464221 0 0)
(0.465245 0 0)
(0.466304 0 0)
(0.467402 0 0)
(0.468538 0 0)
(0.469713 0 0)
(0.470929 0 0)
(0.472187 0 0)
(0.473488 0 0)
(0.474832 0 0)
(0.476222 0 0)
(0.477657 0 0)
(0.479139 0 0)
(0.48067 0 0)
(0.48225 0 0)
(0.483881 0 0)
(0.485563 0 0)
(0.487299 0 0)
(0.489088 0 0)
(0.490932 0 0)
(0.492833 0 0)
(0.494792 0 0)
(0.496809 0 0)
(0.498886 0 0)
(0.501024 0 0)
(0.503225 0 0)
(0.505489 0 0)
(0.507818 0 0)
(0.510213 0 0)
(0.512675 0 0)
(0.515206 0 0)
(0.517806 0 0)
(0.520477 0 0)
(0.523221 0 0)
(0.526037 0 0)
(0.528928 0 0)
(0.531895 0 0)
(0.534939 0 0)
(0.53806 0 0)
(0.541261 0 0)
(0.544542 0 0)
(0.547905 0 0)
(0.551351 0 0)
(0.55488 0 0)
(0.558495 0 0)
(0.562196 0 0)
(0.565984 0 0)
(0.56986 0 0)
(0.573826 0 0)
(0.577882 0 0)
(0.58203 0 0)
(0.58627 0 0)
(0.590604 0 0)
(0.595033 0 0)
(0.599557 0 0)
(0.604178 0 0)
(0.608896 0 0)
(0.613713 0 0)
(0.61863 0 0)
(0.623646 0 0)
(0.628764 0 0)
(0.633984 0 0)
(0.639307 0 0)
(0.644733 0 0)
(0.650264 0 0)
(0.6559 0 0)
(0.661641 0 0)
(0.66749 0 0)
(0.673446 0 0)
(0.679509 0 0)
(0.685682 0 0)
(0.691964 0 0)
(0.698355 0 0)
(0.704857 0 0)
(0.71147 0 0)
(0.718194 0 0)
(0.72503 0 0)
(0.731979 0 0)
(0.73904 0 0)
(0.746215 0 0)
(0.753503 0 0)
(0.760906 0 0)
(0.768422 0 0)
(0.776053 0 0)
(0.783799 0 0)
(0.79166 0 0)
(0.799636 0 0)
(0.807728 0 0)
(0.815936 0 0)
(0.824259 0 0)
(0.832699 0 0)
(0.841254 0 0)
(0.849926 0 0)
(0.858713 0 0)
(0.867617 0 0)
(0.876637 0 0)
(0.885773 0 0)
(0.895026 0 0)
(0.904394 0 0)
(0.913878 0 0)
(0.923478 0 0)
(0.933194 0 0)
(0.943024 0 0)
(0.952971 0 0)
(0.963032 0 0)
(0.973208 0 0)
(0.983499 0 0)
(0.993904 0 0)
(1.00442 0 0)
(1.01506 0 0)
(1.0258 0 0)
(1.03666 0 0)
(1.04763 0 0)
(1.05872 0 0)
(1.06991 0 0)
(1.08122 0 0)
(1.09264 0 0)
(1.10416 0 0)
(1.1158 0 0)
(1.12755 0 0)
(1.13941 0 0)
(1.15137 0 0)
(1.16345 0 0)
(1.17563 0 0)
(1.18792 0 0)
(1.20031 0 0)
(1.21281 0 0)
(1.22542 0 0)
(1.23813 0 0)
(1.25094 0 0)
(1.26386 0 0)
(1.27688 0 0)
(1.29 0 0)
(1.30322 0 0)
(1.31654 0 0)
(1.32997 0 0)
(1.34349 0 0)
(1.35711 0 0)
(1.37083 0 0)
(1.38465 0 0)
(1.39857 0 0)
(1.41258 0 0)
(1.42668 0 0)
(1.44088 0 0)
(1.45517 0 0)
(1.46956 0 0)
(1.48404 0 0)
(1.49861 0 0)
(1.51327 0 0)
(1.52802 0 0)
(1.54286 0 0)
(1.55779 0 0)
(1.57281 0 0)
(1.58792 0 0)
(1.60311 0 0)
(1.61838 0 0)
(1.63374 0 0)
(1.64919 0 0)
(1.66472 0 0)
(1.68033 0 0)
(1.69602 0 0)
(1.7118 0 0)
(1.72765 0 0)
(1.74358 0 0)
(1.7596 0 0)
(1.77569 0 0)
(1.79186 0 0)
(1.8081 0 0)
(1.82442 0 0)
(1.84081 0 0)
(1.85728 0 0)
(1.87383 0 0)
(1.89044 0 0)
(1.90713 0 0)
(1.92389 0 0)
(1.94072 0 0)
(1.95762 0 0)
(1.97459 0 0)
(1.99162 0 0)
(2.00873 0 0)
(2.0259 0 0)
(2.04314 0 0)
(2.06044 0 0)
(2.0778 0 0)
(2.09524 0 0)
(2.11273 0 0)
(2.13029 0 0)
(2.14791 0 0)
(2.16559 0 0)
(2.18333 0 0)
(2.20113 0 0)
(2.21898 0 0)
(2.2369 0 0)
(2.25488 0 0)
(2.27291 0 0)
(2.291 0 0)
(2.30914 0 0)
(2.32734 0 0)
(2.34559 0 0)
(2.36389 0 0)
(2.38225 0 0)
(2.40066 0 0)
(2.41913 0 0)
(2.43764 0 0)
(2.4562 0 0)
(2.47481 0 0)
(2.49347 0 0)
(2.51218 0 0)
(2.53094 0 0)
(2.54974 0 0)
(2.56859 0 0)
(2.58749 0 0)
(2.60643 0 0)
(2.62541 0 0)
(2.64444 0 0)
(2.66351 0 0)
(2.68262 0 0)
(2.70177 0 0)
(2.72097 0 0)
(2.7402 0 0)
(2.75947 0 0)
(2.77879 0 0)
(2.79814 0 0)
(2.81753 0 0)
(2.83695 0 0)
(2.85641 0 0)
(2.87591 0 0)
(2.89544 0 0)
(2.915 0 0)
(2.9346 0 0)
(2.95423 0 0)
(2.9739 0 0)
(2.99359 0 0)
(3.01331 0 0)
(3.03307 0 0)
(3.05285 0 0)
(3.07266 0 0)
(3.0925 0 0)
(3.11237 0 0)
(3.13226 0 0)
(3.15217 0 0)
(3.17211 0 0)
(3.19208 0 0)
(3.21206 0 0)
(3.23207 0 0)
(3.2521 0 0)
(3.27215 0 0)
(3.29222 0 0)
(3.3123 0 0)
(3.33241 0 0)
(3.35252 0 0)
(3.37266 0 0)
(3.39281 0 0)
(3.41297 0 0)
(3.43314 0 0)
(3.45332 0 0)
(3.47351 0 0)
(3.49371 0 0)
(3.51392 0 0)
(3.53413 0 0)
(3.55435 0 0)
(3.57457 0 0)
(3.59479 0 0)
(3.61501 0 0)
(3.63523 0 0)
(3.65544 0 0)
(3.67565 0 0)
(3.69586 0 0)
(3.71605 0 0)
(3.73623 0 0)
(3.7564 0 0)
(3.77655 0 0)
(3.79669 0 0)
(3.8168 0 0)
(3.8369 0 0)
(3.85697 0 0)
(3.87701 0 0)
(3.89702 0 0)
(3.91699 0 0)
(3.93693 0 0)
(3.95683 0 0)
(3.97669 0 0)
(3.9965 0 0)
(4.01626 0 0)
(4.03596 0 0)
(4.0556 0 0)
(4.07518 0 0)
(4.09469 0 0)
(4.11413 0 0)
(4.13348 0 0)
(4.15276 0 0)
(4.17194 0 0)
(4.19102 0 0)
(4.21001 0 0)
(4.22888 0 0)
(4.24763 0 0)
(4.26626 0 0)
(4.28475 0 0)
(4.30311 0 0)
(4.32131 0 0)
(4.33935 0 0)
(4.35722 0 0)
(4.3749 0 0)
(4.39239 0 0)
(4.40968 0 0)
(4.42675 0 0)
(4.44359 0 0)
(4.46018 0 0)
(4.47651 0 0)
(4.49256 0 0)
(4.50832 0 0)
(4.52377 0 0)
(4.53888 0 0)
(4.55365 0 0)
(4.56804 0 0)
(4.58204 0 0)
(4.59562 0 0)
(4.60877 0 0)
(4.62144 0 0)
(4.63362 0 0)
(4.64528 0 0)
(4.65638 0 0)
(4.66689 0 0)
(4.67679 0 0)
(4.68603 0 0)
(4.69458 0 0)
(4.7024 0 0)
(4.70945 0 0)
(4.71569 0 0)
(4.72107 0 0)
(4.72554 0 0)
(4.72906 0 0)
(4.73158 0 0)
(4.73304 0 0)
(4.73339 0 0)
(4.73258 0 0)
(4.73054 0 0)
(4.72722 0 0)
(4.72256 0 0)
(4.71648 0 0)
(4.70894 0 0)
(4.69985 0 0)
(4.68916 0 0)
(4.6768 0 0)
(4.66269 0 0)
(4.64678 0 0)
(4.62899 0 0)
(4.60925 0 0)
(4.58751 0 0)
(4.56369 0 0)
(4.53773 0 0)
(4.50958 0 0)
(4.47917 0 0)
(4.44647 0 0)
(4.41141 0 0)
(4.37396 0 0)
(4.33408 0 0)
(4.29176 0 0)
(4.24696 0 0)
(4.19968 0 0)
(4.14993 0 0)
(4.0977 0 0)
(4.04302 0 0)
(3.98593 0 0)
(3.92647 0 0)
(3.86469 0 0)
(3.80068 0 0)
(3.73451 0 0)
(3.66628 0 0)
(3.59611 0 0)
(3.52411 0 0)
(3.45042 0 0)
(3.3752 0 0)
(3.29859 0 0)
(3.22076 0 0)
(3.1419 0 0)
(3.06217 0 0)
(2.98178 0 0)
(2.90092 0 0)
(2.81978 0 0)
(2.73855 0 0)
(2.65744 0 0)
(2.57663 0 0)
(2.49632 0 0)
(2.41668 0 0)
(2.3379 0 0)
(2.26015 0 0)
(2.18357 0 0)
(2.10832 0 0)
(2.03454 0 0)
(1.96234 0 0)
(1.89185 0 0)
(1.82316 0 0)
(1.75635 0 0)
(1.6915 0 0)
(1.62867 0 0)
(1.5679 0 0)
(1.50924 0 0)
(1.4527 0 0)
(1.39829 0 0)
(1.34603 0 0)
(1.2959 0 0)
(1.24789 0 0)
(1.20197 0 0)
(1.15811 0 0)
(1.11628 0 0)
(1.07643 0 0)
(1.03852 0 0)
(1.00249 0 0)
(0.968296 0 0)
(0.935868 0 0)
(0.905152 0 0)
(0.876086 0 0)
(0.848608 0 0)
(0.822654 0 0)
(0.798163 0 0)
(0.77507 0 0)
(0.753314 0 0)
(0.732833 0 0)
(0.713567 0 0)
(0.695456 0 0)
(0.678443 0 0)
(0.662472 0 0)
(0.647488 0 0)
(0.633438 0 0)
(0.620273 0 0)
(0.607943 0 0)
(0.596402 0 0)
(0.585604 0 0)
(0.575506 0 0)
(0.566069 0 0)
(0.557252 0 0)
(0.549019 0 0)
(0.541334 0 0)
(0.534163 0 0)
(0.527476 0 0)
(0.521241 0 0)
(0.515431 0 0)
(0.510017 0 0)
(0.504976 0 0)
(0.500283 0 0)
(0.495915 0 0)
(0.491852 0 0)
(0.488072 0 0)
(0.484558 0 0)
(0.481292 0 0)
(0.478257 0 0)
(0.475437 0 0)
(0.472818 0 0)
(0.470387 0 0)
(0.46813 0 0)
(0.466035 0 0)
(0.464092 0 0)
(0.46229 0 0)
(0.460618 0 0)
(0.459069 0 0)
(0.457632 0 0)
(0.456301 0 0)
(0.455068 0 0)
(0.453926 0 0)
(0.452868 0 0)
(0.451889 0 0)
(0.450982 0 0)
(0.450143 0 0)
(0.449366 0 0)
(0.448647 0 0)
(0.447983 0 0)
(0.447368 0 0)
(0.4468 0 0)
(0.446274 0 0)
(0.445789 0 0)
(0.44534 0 0)
(0.444925 0 0)
(0.444542 0 0)
(0.444188 0 0)
(0.443861 0 0)
(0.443559 0 0)
(0.44328 0 0)
(0.443023 0 0)
(0.442785 0 0)
(0.442566 0 0)
(0.442364 0 0)
(0.442177 0 0)
(0.442005 0 0)
(0.441846 0 0)
(0.441699 0 0)
(0.441564 0 0)
(0.44144 0 0)
(0.441325 0 0)
(0.441219 0 0)
(0.441121 0 0)
(0.441031 0 0)
(0.440949 0 0)
(0.440872 0 0)
(0.440802 0 0)
(0.440737 0 0)
(0.440677 0 0)
(0.440622 0 0)
(0.440572 0 0)
(0.440525 0 0)
(0.440482 0 0)
(0.440443 0 0)
(0.440406 0 0)
(0.440373 0 0)
(0.440342 0 0)
(0.440313 0 0)
(0.440287 0 0)
(0.440263 0 0)
(0.440241 0 0)
(0.440221 0 0)
(0.440202 0 0)
(0.440185 0 0)
(0.440169 0 0)
(0.440154 0 0)
(0.440141 0 0)
(0.440129 0 0)
(0.440117 0 0)
(0.440107 0 0)
(0.440097 0 0)
(0.440089 0 0)
(0.44008 0 0)
(0.440073 0 0)
(0.440066 0 0)
(0.44006 0 0)
(0.440054 0 0)
(0.440049 0 0)
(0.440044 0 0)
(0.440039 0 0)
(0.440035 0 0)
(0.440031 0 0)
(0.440028 0 0)
(0.440025 0 0)
(0.440022 0 0)
(0.440019 0 0)
(0.440017 0 0)
(0.440014 0 0)
(0.440012 0 0)
(0.44001 0 0)
(0.440009 0 0)
(0.440007 0 0)
(0.440005 0 0)
(0.440004 0 0)
(0.440003 0 0)
(0.440002 0 0)
(0.440001 0 0)
(0.44 0 0)
(0.439999 0 0)
(0.439998 0 0)
(0.439997 0 0)
(0.439996 0 0)
(0.439996 0 0)
(0.439995 0 0)
(0.439995 0 0)
(0.439994 0 0)
(0.439994 0 0)
(0.439993 0 0)
(0.439993 0 0)
(0.439993 0 0)
(0.439992 0 0)
(0.439992 0 0)
(0.439992 0 0)
(0.439992 0 0)
(0.439991 0 0)
(0.439991 0 0)
(0.439991 0 0)
(0.439991 0 0)
(0.439991 0 0)
(0.43999 0 0)
(0.43999 0 0)
(0.43999 0 0)
(0.43999 0 0)
(0.43999 0 0)
(0.43999 0 0)
(0.43999 0 0)
(0.43999 0 0)
(0.43999 0 0)
(0.43999 0 0)
(0.43999 0 0)
(0.43999 0 0)
(0.439989 0 0)
(0.439989 0 0)
(0.439989 0 0)
(0.439989 0 0)
(0.439989 0 0)
(0.439989 0 0)
(0.439989 0 0)
(0.439989 0 0)
(0.439989 0 0)
(0.439989 0 0)
(0.439989 0 0)
(0.439989 0 0)
(0.439989 0 0)
(0.439989 0 0)
(0.439989 0 0)
(0.439989 0 0)
(0.439989 0 0)
(0.439989 0 0)
(0.439989 0 0)
(0.439989 0 0)
(0.439989 0 0)
(0.439989 0 0)
(0.439989 0 0)
(0.439989 0 0)
(0.439989 0 0)
(0.439989 0 0)
(0.439989 0 0)
(0.439989 0 0)
(0.439989 0 0)
(0.439989 0 0)
(0.439989 0 0)
(0.439989 0 0)
(0.439989 0 0)
(0.439989 0 0)
(0.439989 0 0)
(0.439989 0 0)
(0.439989 0 0)
(0.439989 0 0)
(0.439989 0 0)
(0.439989 0 0)
(0.439989 0 0)
(0.439989 0 0)
(0.439989 0 0)
(0.439989 0 0)
(0.439989 0 0)
(0.439989 0 0)
(0.439989 0 0)
(0.439989 0 0)
(0.439989 0 0)
(0.439989 0 0)
(0.439989 0 0)
(0.439989 0 0)
(0.439989 0 0)
(0.439989 0 0)
(0.439989 0 0)
(0.439989 0 0)
(0.439989 0 0)
(0.439989 0 0)
(0.439989 0 0)
(0.439989 0 0)
(0.439989 0 0)
(0.439989 0 0)
(0.439989 0 0)
(0.439989 0 0)
(0.439989 0 0)
(0.439989 0 0)
(0.439989 0 0)
(0.439989 0 0)
(0.439989 0 0)
(0.439989 0 0)
(0.439989 0 0)
(0.439989 0 0)
(0.439989 0 0)
(0.439989 0 0)
(0.439989 0 0)
(0.439989 0 0)
(0.439989 0 0)
(0.439989 0 0)
(0.439989 0 0)
(0.439989 0 0)
(0.439989 0 0)
(0.439989 0 0)
(0.439989 0 0)
(0.439989 0 0)
(0.439989 0 0)
(0.439989 0 0)
(0.439989 0 0)
(0.439989 0 0)
(0.439989 0 0)
(0.439989 0 0)
(0.439989 0 0)
(0.439989 0 0)
(0.439989 0 0)
(0.439989 0 0)
(0.439989 0 0)
(0.439989 0 0)
(0.439989 0 0)
(0.439989 0 0)
(0.439989 0 0)
(0.439989 0 0)
(0.439989 0 0)
(0.439989 0 0)
(0.439989 0 0)
(0.439989 0 0)
(0.439989 0 0)
(0.439989 0 0)
(0.439989 0 0)
(0.439989 0 0)
(0.439989 0 0)
)
;

boundaryField
{
    topWall
    {
        type            empty;
    }
    bottomWall
    {
        type            empty;
    }
    leftAndRight_half1
    {
        type            cyclic;
    }
    leftAndRight_half0
    {
        type            cyclic;
    }
    frontAndBack
    {
        type            empty;
    }
}


// ************************************************************************* //
