/*--------------------------------*- C++ -*----------------------------------*\
  =========                 |
  \\      /  F ield         | OpenFOAM: The Open Source CFD Toolbox
   \\    /   O peration     | Website:  https://openfoam.org
    \\  /    A nd           | Version:  9
     \\/     M anipulation  |
\*---------------------------------------------------------------------------*/
FoamFile
{
    format      ascii;
    class       volVectorField;
    location    "3.1";
    object      U;
}
// * * * * * * * * * * * * * * * * * * * * * * * * * * * * * * * * * * * * * //

dimensions      [0 1 -1 0 0 0 0];

internalField   nonuniform List<vector> 
1000
(
(0.131764 0 0)
(0.131695 0 0)
(0.131765 0 0)
(0.131693 0 0)
(0.131765 0 0)
(0.131691 0 0)
(0.131766 0 0)
(0.131689 0 0)
(0.131767 0 0)
(0.131686 0 0)
(0.131767 0 0)
(0.131684 0 0)
(0.131768 0 0)
(0.131682 0 0)
(0.131768 0 0)
(0.131679 0 0)
(0.131768 0 0)
(0.131677 0 0)
(0.131769 0 0)
(0.131675 0 0)
(0.131769 0 0)
(0.131673 0 0)
(0.131769 0 0)
(0.131671 0 0)
(0.131769 0 0)
(0.131669 0 0)
(0.131769 0 0)
(0.131667 0 0)
(0.131769 0 0)
(0.131665 0 0)
(0.131769 0 0)
(0.131664 0 0)
(0.131769 0 0)
(0.131662 0 0)
(0.131769 0 0)
(0.131661 0 0)
(0.131768 0 0)
(0.13166 0 0)
(0.131768 0 0)
(0.13166 0 0)
(0.131768 0 0)
(0.13166 0 0)
(0.131769 0 0)
(0.13166 0 0)
(0.131769 0 0)
(0.13166 0 0)
(0.131769 0 0)
(0.131661 0 0)
(0.13177 0 0)
(0.131662 0 0)
(0.131771 0 0)
(0.131664 0 0)
(0.131772 0 0)
(0.131667 0 0)
(0.131774 0 0)
(0.13167 0 0)
(0.131776 0 0)
(0.131674 0 0)
(0.131779 0 0)
(0.131679 0 0)
(0.131782 0 0)
(0.131684 0 0)
(0.131786 0 0)
(0.13169 0 0)
(0.13179 0 0)
(0.131697 0 0)
(0.131795 0 0)
(0.131706 0 0)
(0.131801 0 0)
(0.131715 0 0)
(0.131808 0 0)
(0.131725 0 0)
(0.131817 0 0)
(0.131737 0 0)
(0.131826 0 0)
(0.13175 0 0)
(0.131836 0 0)
(0.131764 0 0)
(0.131848 0 0)
(0.13178 0 0)
(0.131861 0 0)
(0.131797 0 0)
(0.131876 0 0)
(0.131815 0 0)
(0.131895 0 0)
(0.131832 0 0)
(0.131919 0 0)
(0.131844 0 0)
(0.131955 0 0)
(0.131846 0 0)
(0.13201 0 0)
(0.131831 0 0)
(0.132089 0 0)
(0.131811 0 0)
(0.132178 0 0)
(0.131822 0 0)
(0.132243 0 0)
(0.131917 0 0)
(0.132274 0 0)
(0.132086 0 0)
(0.13233 0 0)
(0.132258 0 0)
(0.132434 0 0)
(0.132402 0 0)
(0.132551 0 0)
(0.13252 0 0)
(0.132651 0 0)
(0.132612 0 0)
(0.132726 0 0)
(0.13268 0 0)
(0.132779 0 0)
(0.13273 0 0)
(0.132817 0 0)
(0.132768 0 0)
(0.132848 0 0)
(0.132802 0 0)
(0.132875 0 0)
(0.132833 0 0)
(0.132901 0 0)
(0.132865 0 0)
(0.132929 0 0)
(0.132897 0 0)
(0.132958 0 0)
(0.132931 0 0)
(0.132988 0 0)
(0.132965 0 0)
(0.133019 0 0)
(0.133001 0 0)
(0.133052 0 0)
(0.133038 0 0)
(0.133086 0 0)
(0.133076 0 0)
(0.133122 0 0)
(0.133115 0 0)
(0.133158 0 0)
(0.133155 0 0)
(0.133196 0 0)
(0.133195 0 0)
(0.133234 0 0)
(0.133236 0 0)
(0.133273 0 0)
(0.133278 0 0)
(0.133313 0 0)
(0.13332 0 0)
(0.133354 0 0)
(0.133363 0 0)
(0.133395 0 0)
(0.133406 0 0)
(0.133436 0 0)
(0.133449 0 0)
(0.133478 0 0)
(0.133492 0 0)
(0.133519 0 0)
(0.133535 0 0)
(0.133561 0 0)
(0.133577 0 0)
(0.133602 0 0)
(0.133619 0 0)
(0.133643 0 0)
(0.13366 0 0)
(0.133683 0 0)
(0.133701 0 0)
(0.133722 0 0)
(0.133741 0 0)
(0.133761 0 0)
(0.13378 0 0)
(0.133799 0 0)
(0.133818 0 0)
(0.133835 0 0)
(0.133854 0 0)
(0.133871 0 0)
(0.133889 0 0)
(0.133904 0 0)
(0.133922 0 0)
(0.133936 0 0)
(0.133953 0 0)
(0.133967 0 0)
(0.133983 0 0)
(0.133995 0 0)
(0.134011 0 0)
(0.134022 0 0)
(0.134036 0 0)
(0.134046 0 0)
(0.13406 0 0)
(0.134067 0 0)
(0.134081 0 0)
(0.134086 0 0)
(0.1341 0 0)
(0.134102 0 0)
(0.134117 0 0)
(0.134114 0 0)
(0.134131 0 0)
(0.134125 0 0)
(0.13414 0 0)
(0.134135 0 0)
(0.134146 0 0)
(0.134143 0 0)
(0.134152 0 0)
(0.134152 0 0)
(0.134162 0 0)
(0.134165 0 0)
(0.134176 0 0)
(0.134175 0 0)
(0.134171 0 0)
(0.134137 0 0)
(0.134084 0 0)
(0.133999 0 0)
(0.133909 0 0)
(0.133812 0 0)
(0.133734 0 0)
(0.133666 0 0)
(0.133622 0 0)
(0.133587 0 0)
(0.133569 0 0)
(0.133553 0 0)
(0.133546 0 0)
(0.133537 0 0)
(0.133534 0 0)
(0.133527 0 0)
(0.133524 0 0)
(0.133517 0 0)
(0.133513 0 0)
(0.133505 0 0)
(0.1335 0 0)
(0.133491 0 0)
(0.133485 0 0)
(0.133475 0 0)
(0.133468 0 0)
(0.133457 0 0)
(0.133448 0 0)
(0.133436 0 0)
(0.133427 0 0)
(0.133414 0 0)
(0.133403 0 0)
(0.133389 0 0)
(0.133377 0 0)
(0.133363 0 0)
(0.13335 0 0)
(0.133335 0 0)
(0.133321 0 0)
(0.133305 0 0)
(0.13329 0 0)
(0.133273 0 0)
(0.133258 0 0)
(0.13324 0 0)
(0.133224 0 0)
(0.133206 0 0)
(0.133189 0 0)
(0.13317 0 0)
(0.133153 0 0)
(0.133134 0 0)
(0.133115 0 0)
(0.133096 0 0)
(0.133077 0 0)
(0.133058 0 0)
(0.133038 0 0)
(0.133018 0 0)
(0.132999 0 0)
(0.132979 0 0)
(0.132959 0 0)
(0.132938 0 0)
(0.132918 0 0)
(0.132898 0 0)
(0.132877 0 0)
(0.132857 0 0)
(0.132836 0 0)
(0.132816 0 0)
(0.132795 0 0)
(0.132775 0 0)
(0.132754 0 0)
(0.132734 0 0)
(0.132714 0 0)
(0.132693 0 0)
(0.132673 0 0)
(0.132653 0 0)
(0.132633 0 0)
(0.132613 0 0)
(0.132593 0 0)
(0.132573 0 0)
(0.132554 0 0)
(0.132535 0 0)
(0.132515 0 0)
(0.132496 0 0)
(0.132478 0 0)
(0.132459 0 0)
(0.132441 0 0)
(0.132422 0 0)
(0.132404 0 0)
(0.132387 0 0)
(0.132369 0 0)
(0.132352 0 0)
(0.132335 0 0)
(0.132318 0 0)
(0.132301 0 0)
(0.132285 0 0)
(0.132269 0 0)
(0.132253 0 0)
(0.132238 0 0)
(0.132223 0 0)
(0.132208 0 0)
(0.132193 0 0)
(0.132179 0 0)
(0.132165 0 0)
(0.132151 0 0)
(0.132138 0 0)
(0.132124 0 0)
(0.132112 0 0)
(0.132099 0 0)
(0.132087 0 0)
(0.132075 0 0)
(0.132063 0 0)
(0.132051 0 0)
(0.13204 0 0)
(0.132029 0 0)
(0.132019 0 0)
(0.132008 0 0)
(0.131998 0 0)
(0.131989 0 0)
(0.131979 0 0)
(0.13197 0 0)
(0.131961 0 0)
(0.131952 0 0)
(0.131944 0 0)
(0.131935 0 0)
(0.131928 0 0)
(0.13192 0 0)
(0.131912 0 0)
(0.131905 0 0)
(0.131898 0 0)
(0.131891 0 0)
(0.131885 0 0)
(0.131879 0 0)
(0.131872 0 0)
(0.131867 0 0)
(0.131861 0 0)
(0.131855 0 0)
(0.13185 0 0)
(0.131845 0 0)
(0.13184 0 0)
(0.131835 0 0)
(0.131831 0 0)
(0.131827 0 0)
(0.131822 0 0)
(0.131818 0 0)
(0.131814 0 0)
(0.131811 0 0)
(0.131807 0 0)
(0.131804 0 0)
(0.131801 0 0)
(0.131797 0 0)
(0.131794 0 0)
(0.131792 0 0)
(0.131789 0 0)
(0.131786 0 0)
(0.131784 0 0)
(0.131781 0 0)
(0.131779 0 0)
(0.131777 0 0)
(0.131775 0 0)
(0.131773 0 0)
(0.131771 0 0)
(0.131769 0 0)
(0.131767 0 0)
(0.131766 0 0)
(0.131764 0 0)
(0.131763 0 0)
(0.131761 0 0)
(0.13176 0 0)
(0.131759 0 0)
(0.131757 0 0)
(0.131756 0 0)
(0.131755 0 0)
(0.131754 0 0)
(0.131753 0 0)
(0.131752 0 0)
(0.131751 0 0)
(0.131751 0 0)
(0.13175 0 0)
(0.131749 0 0)
(0.131748 0 0)
(0.131748 0 0)
(0.131747 0 0)
(0.131747 0 0)
(0.131746 0 0)
(0.131746 0 0)
(0.131745 0 0)
(0.131745 0 0)
(0.131744 0 0)
(0.131744 0 0)
(0.131743 0 0)
(0.131743 0 0)
(0.131743 0 0)
(0.131742 0 0)
(0.131742 0 0)
(0.131742 0 0)
(0.131742 0 0)
(0.131741 0 0)
(0.131741 0 0)
(0.131741 0 0)
(0.131741 0 0)
(0.13174 0 0)
(0.13174 0 0)
(0.13174 0 0)
(0.13174 0 0)
(0.13174 0 0)
(0.13174 0 0)
(0.13174 0 0)
(0.131739 0 0)
(0.131739 0 0)
(0.131739 0 0)
(0.131739 0 0)
(0.131739 0 0)
(0.131739 0 0)
(0.131739 0 0)
(0.131739 0 0)
(0.131739 0 0)
(0.131739 0 0)
(0.131739 0 0)
(0.131739 0 0)
(0.131739 0 0)
(0.131739 0 0)
(0.131738 0 0)
(0.131738 0 0)
(0.131738 0 0)
(0.131738 0 0)
(0.131738 0 0)
(0.131738 0 0)
(0.131738 0 0)
(0.131738 0 0)
(0.131738 0 0)
(0.131738 0 0)
(0.131738 0 0)
(0.131738 0 0)
(0.131738 0 0)
(0.131738 0 0)
(0.131738 0 0)
(0.131738 0 0)
(0.131738 0 0)
(0.131738 0 0)
(0.131738 0 0)
(0.131738 0 0)
(0.131738 0 0)
(0.131738 0 0)
(0.131738 0 0)
(0.131738 0 0)
(0.131738 0 0)
(0.131738 0 0)
(0.131738 0 0)
(0.131738 0 0)
(0.131738 0 0)
(0.131738 0 0)
(0.131738 0 0)
(0.131738 0 0)
(0.131738 0 0)
(0.131738 0 0)
(0.131738 0 0)
(0.131738 0 0)
(0.131738 0 0)
(0.131738 0 0)
(0.131738 0 0)
(0.131738 0 0)
(0.131738 0 0)
(0.131738 0 0)
(0.131738 0 0)
(0.131738 0 0)
(0.131738 0 0)
(0.131738 0 0)
(0.131738 0 0)
(0.131738 0 0)
(0.131738 0 0)
(0.131738 0 0)
(0.131738 0 0)
(0.131738 0 0)
(0.131738 0 0)
(0.131738 0 0)
(0.131738 0 0)
(0.131738 0 0)
(0.131738 0 0)
(0.131738 0 0)
(0.131738 0 0)
(0.131738 0 0)
(0.131738 0 0)
(0.131738 0 0)
(0.131738 0 0)
(0.131738 0 0)
(0.131738 0 0)
(0.131738 0 0)
(0.131738 0 0)
(0.131738 0 0)
(0.131738 0 0)
(0.131738 0 0)
(0.131738 0 0)
(0.131738 0 0)
(0.131738 0 0)
(0.131738 0 0)
(0.131738 0 0)
(0.131738 0 0)
(0.131738 0 0)
(0.131738 0 0)
(0.131738 0 0)
(0.131738 0 0)
(0.131738 0 0)
(0.131738 0 0)
(0.131738 0 0)
(0.131738 0 0)
(0.131738 0 0)
(0.131738 0 0)
(0.131738 0 0)
(0.131738 0 0)
(0.131738 0 0)
(0.131738 0 0)
(0.131738 0 0)
(0.131738 0 0)
(0.131738 0 0)
(0.131738 0 0)
(0.131738 0 0)
(0.131738 0 0)
(0.131738 0 0)
(0.131738 0 0)
(0.131738 0 0)
(0.131738 0 0)
(0.131738 0 0)
(0.131738 0 0)
(0.131738 0 0)
(0.131738 0 0)
(0.131738 0 0)
(0.131738 0 0)
(0.131738 0 0)
(0.131738 0 0)
(0.131738 0 0)
(0.131738 0 0)
(0.131738 0 0)
(0.131738 0 0)
(0.131738 0 0)
(0.131738 0 0)
(0.131738 0 0)
(0.131738 0 0)
(0.131738 0 0)
(0.131738 0 0)
(0.131738 0 0)
(0.131738 0 0)
(0.131738 0 0)
(0.131738 0 0)
(0.131738 0 0)
(0.131738 0 0)
(0.131738 0 0)
(0.131738 0 0)
(0.131738 0 0)
(0.131738 0 0)
(0.131738 0 0)
(0.131738 0 0)
(0.131738 0 0)
(0.131738 0 0)
(0.131738 0 0)
(0.131738 0 0)
(0.131738 0 0)
(0.131738 0 0)
(0.131738 0 0)
(0.131738 0 0)
(0.131738 0 0)
(0.131738 0 0)
(0.131738 0 0)
(0.131738 0 0)
(0.131738 0 0)
(0.131738 0 0)
(0.131738 0 0)
(0.131738 0 0)
(0.131738 0 0)
(0.131738 0 0)
(0.131738 0 0)
(0.131738 0 0)
(0.131738 0 0)
(0.131738 0 0)
(0.131738 0 0)
(0.131738 0 0)
(0.131738 0 0)
(0.131738 0 0)
(0.131738 0 0)
(0.131738 0 0)
(0.131738 0 0)
(0.131738 0 0)
(0.131738 0 0)
(0.131738 0 0)
(0.131738 0 0)
(0.131738 0 0)
(0.131738 0 0)
(0.131738 0 0)
(0.131738 0 0)
(0.131738 0 0)
(0.131738 0 0)
(0.131738 0 0)
(0.131738 0 0)
(0.131738 0 0)
(0.131738 0 0)
(0.131738 0 0)
(0.131738 0 0)
(0.131738 0 0)
(0.131738 0 0)
(0.131738 0 0)
(0.131738 0 0)
(0.131738 0 0)
(0.131738 0 0)
(0.131738 0 0)
(0.131738 0 0)
(0.131738 0 0)
(0.131738 0 0)
(0.131738 0 0)
(0.131738 0 0)
(0.131738 0 0)
(0.131738 0 0)
(0.131738 0 0)
(0.131738 0 0)
(0.131738 0 0)
(0.131738 0 0)
(0.131738 0 0)
(0.131738 0 0)
(0.131738 0 0)
(0.131738 0 0)
(0.131738 0 0)
(0.131738 0 0)
(0.131738 0 0)
(0.131738 0 0)
(0.131738 0 0)
(0.131738 0 0)
(0.131738 0 0)
(0.131738 0 0)
(0.131738 0 0)
(0.131738 0 0)
(0.131738 0 0)
(0.131738 0 0)
(0.131738 0 0)
(0.131738 0 0)
(0.131738 0 0)
(0.131738 0 0)
(0.131738 0 0)
(0.131738 0 0)
(0.131738 0 0)
(0.131738 0 0)
(0.131738 0 0)
(0.131738 0 0)
(0.131738 0 0)
(0.131738 0 0)
(0.131738 0 0)
(0.131738 0 0)
(0.131738 0 0)
(0.131738 0 0)
(0.131738 0 0)
(0.131738 0 0)
(0.131738 0 0)
(0.131738 0 0)
(0.131738 0 0)
(0.131738 0 0)
(0.131738 0 0)
(0.131738 0 0)
(0.131738 0 0)
(0.131738 0 0)
(0.131738 0 0)
(0.131738 0 0)
(0.131738 0 0)
(0.131738 0 0)
(0.131738 0 0)
(0.131738 0 0)
(0.131738 0 0)
(0.131738 0 0)
(0.131738 0 0)
(0.131738 0 0)
(0.131738 0 0)
(0.131738 0 0)
(0.131738 0 0)
(0.131738 0 0)
(0.131738 0 0)
(0.131738 0 0)
(0.131738 0 0)
(0.131738 0 0)
(0.131738 0 0)
(0.131738 0 0)
(0.131738 0 0)
(0.131738 0 0)
(0.131738 0 0)
(0.131738 0 0)
(0.131738 0 0)
(0.131738 0 0)
(0.131738 0 0)
(0.131738 0 0)
(0.131738 0 0)
(0.131738 0 0)
(0.131738 0 0)
(0.131738 0 0)
(0.131738 0 0)
(0.131738 0 0)
(0.131738 0 0)
(0.131738 0 0)
(0.131738 0 0)
(0.131738 0 0)
(0.131738 0 0)
(0.131738 0 0)
(0.131738 0 0)
(0.131738 0 0)
(0.131738 0 0)
(0.131738 0 0)
(0.131738 0 0)
(0.131738 0 0)
(0.131738 0 0)
(0.131738 0 0)
(0.131738 0 0)
(0.131738 0 0)
(0.131738 0 0)
(0.131738 0 0)
(0.131738 0 0)
(0.131738 0 0)
(0.131738 0 0)
(0.131738 0 0)
(0.131738 0 0)
(0.131738 0 0)
(0.131738 0 0)
(0.131738 0 0)
(0.131738 0 0)
(0.131738 0 0)
(0.131738 0 0)
(0.131738 0 0)
(0.131738 0 0)
(0.131738 0 0)
(0.131738 0 0)
(0.131738 0 0)
(0.131738 0 0)
(0.131738 0 0)
(0.131738 0 0)
(0.131738 0 0)
(0.131738 0 0)
(0.131738 0 0)
(0.131738 0 0)
(0.131738 0 0)
(0.131738 0 0)
(0.131738 0 0)
(0.131738 0 0)
(0.131738 0 0)
(0.131738 0 0)
(0.131738 0 0)
(0.131738 0 0)
(0.131738 0 0)
(0.131738 0 0)
(0.131738 0 0)
(0.131738 0 0)
(0.131738 0 0)
(0.131738 0 0)
(0.131738 0 0)
(0.131738 0 0)
(0.131738 0 0)
(0.131738 0 0)
(0.131738 0 0)
(0.131738 0 0)
(0.131738 0 0)
(0.131738 0 0)
(0.131738 0 0)
(0.131738 0 0)
(0.131738 0 0)
(0.131738 0 0)
(0.131738 0 0)
(0.131738 0 0)
(0.131738 0 0)
(0.131738 0 0)
(0.131738 0 0)
(0.131738 0 0)
(0.131738 0 0)
(0.131738 0 0)
(0.131738 0 0)
(0.131738 0 0)
(0.131738 0 0)
(0.131738 0 0)
(0.131738 0 0)
(0.131738 0 0)
(0.131738 0 0)
(0.131738 0 0)
(0.131738 0 0)
(0.131738 0 0)
(0.131738 0 0)
(0.131738 0 0)
(0.131738 0 0)
(0.131738 0 0)
(0.131738 0 0)
(0.131738 0 0)
(0.131738 0 0)
(0.131738 0 0)
(0.131738 0 0)
(0.131738 0 0)
(0.131738 0 0)
(0.131738 0 0)
(0.131738 0 0)
(0.131738 0 0)
(0.131738 0 0)
(0.131738 0 0)
(0.131738 0 0)
(0.131738 0 0)
(0.131738 0 0)
(0.131738 0 0)
(0.131738 0 0)
(0.131738 0 0)
(0.131738 0 0)
(0.131738 0 0)
(0.131738 0 0)
(0.131738 0 0)
(0.131738 0 0)
(0.131738 0 0)
(0.131738 0 0)
(0.131738 0 0)
(0.131738 0 0)
(0.131738 0 0)
(0.131738 0 0)
(0.131738 0 0)
(0.131738 0 0)
(0.131738 0 0)
(0.131738 0 0)
(0.131738 0 0)
(0.131738 0 0)
(0.131738 0 0)
(0.131738 0 0)
(0.131738 0 0)
(0.131738 0 0)
(0.131738 0 0)
(0.131738 0 0)
(0.131738 0 0)
(0.131738 0 0)
(0.131738 0 0)
(0.131738 0 0)
(0.131738 0 0)
(0.131738 0 0)
(0.131738 0 0)
(0.131738 0 0)
(0.131738 0 0)
(0.131738 0 0)
(0.131738 0 0)
(0.131738 0 0)
(0.131738 0 0)
(0.131738 0 0)
(0.131738 0 0)
(0.131738 0 0)
(0.131738 0 0)
(0.131738 0 0)
(0.131738 0 0)
(0.131738 0 0)
(0.131738 0 0)
(0.131738 0 0)
(0.131738 0 0)
(0.131738 0 0)
(0.131738 0 0)
(0.131738 0 0)
(0.131738 0 0)
(0.131738 0 0)
(0.131738 0 0)
(0.131738 0 0)
(0.131738 0 0)
(0.131738 0 0)
(0.131738 0 0)
(0.131738 0 0)
(0.131738 0 0)
(0.131738 0 0)
(0.131738 0 0)
(0.131738 0 0)
(0.131738 0 0)
(0.131738 0 0)
(0.131738 0 0)
(0.131738 0 0)
(0.131738 0 0)
(0.131738 0 0)
(0.131738 0 0)
(0.131738 0 0)
(0.131738 0 0)
(0.131738 0 0)
(0.131738 0 0)
(0.131738 0 0)
(0.131738 0 0)
(0.131738 0 0)
(0.131738 0 0)
(0.131738 0 0)
(0.131738 0 0)
(0.131738 0 0)
(0.131738 0 0)
(0.131738 0 0)
(0.131738 0 0)
(0.131738 0 0)
(0.131738 0 0)
(0.131738 0 0)
(0.131738 0 0)
(0.131738 0 0)
(0.131738 0 0)
(0.131738 0 0)
(0.131738 0 0)
(0.131738 0 0)
(0.131738 0 0)
(0.131738 0 0)
(0.131738 0 0)
(0.131738 0 0)
(0.131738 0 0)
(0.131738 0 0)
(0.131738 0 0)
(0.131738 0 0)
(0.131738 0 0)
(0.131738 0 0)
(0.131738 0 0)
(0.131738 0 0)
(0.131738 0 0)
(0.131738 0 0)
(0.131738 0 0)
(0.131738 0 0)
(0.131738 0 0)
(0.131737 0 0)
(0.131739 0 0)
(0.131737 0 0)
(0.131739 0 0)
(0.131737 0 0)
(0.131739 0 0)
(0.131737 0 0)
(0.131739 0 0)
(0.131737 0 0)
(0.131739 0 0)
(0.131737 0 0)
(0.131739 0 0)
(0.131737 0 0)
(0.131739 0 0)
(0.131737 0 0)
(0.131739 0 0)
(0.131737 0 0)
(0.131739 0 0)
(0.131736 0 0)
(0.13174 0 0)
(0.131736 0 0)
(0.13174 0 0)
(0.131736 0 0)
(0.13174 0 0)
(0.131736 0 0)
(0.13174 0 0)
(0.131735 0 0)
(0.13174 0 0)
(0.131735 0 0)
(0.131741 0 0)
(0.131735 0 0)
(0.131741 0 0)
(0.131735 0 0)
(0.131741 0 0)
(0.131734 0 0)
(0.131742 0 0)
(0.131734 0 0)
(0.131742 0 0)
(0.131733 0 0)
(0.131742 0 0)
(0.131733 0 0)
(0.131743 0 0)
(0.131732 0 0)
(0.131743 0 0)
(0.131732 0 0)
(0.131744 0 0)
(0.131731 0 0)
(0.131744 0 0)
(0.13173 0 0)
(0.131745 0 0)
(0.13173 0 0)
(0.131746 0 0)
(0.131729 0 0)
(0.131746 0 0)
(0.131728 0 0)
(0.131747 0 0)
(0.131727 0 0)
(0.131748 0 0)
(0.131726 0 0)
(0.131748 0 0)
(0.131725 0 0)
(0.131749 0 0)
(0.131724 0 0)
(0.13175 0 0)
(0.131723 0 0)
(0.131751 0 0)
(0.131722 0 0)
(0.131751 0 0)
(0.13172 0 0)
(0.131752 0 0)
(0.131719 0 0)
(0.131753 0 0)
(0.131718 0 0)
(0.131754 0 0)
(0.131716 0 0)
(0.131755 0 0)
(0.131715 0 0)
(0.131756 0 0)
(0.131713 0 0)
(0.131757 0 0)
(0.131711 0 0)
(0.131758 0 0)
(0.131709 0 0)
(0.131759 0 0)
(0.131708 0 0)
(0.13176 0 0)
(0.131706 0 0)
(0.131761 0 0)
(0.131704 0 0)
(0.131761 0 0)
(0.131702 0 0)
(0.131762 0 0)
(0.1317 0 0)
(0.131763 0 0)
(0.131698 0 0)
)
;

boundaryField
{
    topWall
    {
        type            empty;
    }
    bottomWall
    {
        type            empty;
    }
    leftAndRight_half1
    {
        type            cyclic;
    }
    leftAndRight_half0
    {
        type            cyclic;
    }
    frontAndBack
    {
        type            empty;
    }
}


// ************************************************************************* //
