/*--------------------------------*- C++ -*----------------------------------*\
  =========                 |
  \\      /  F ield         | OpenFOAM: The Open Source CFD Toolbox
   \\    /   O peration     | Website:  https://openfoam.org
    \\  /    A nd           | Version:  9
     \\/     M anipulation  |
\*---------------------------------------------------------------------------*/
FoamFile
{
    format      ascii;
    class       volVectorField;
    location    "4.3";
    object      U;
}
// * * * * * * * * * * * * * * * * * * * * * * * * * * * * * * * * * * * * * //

dimensions      [0 1 -1 0 0 0 0];

internalField   nonuniform List<vector> 
1000
(
(0.131769 0 0)
(0.131693 0 0)
(0.131769 0 0)
(0.131692 0 0)
(0.13177 0 0)
(0.131691 0 0)
(0.13177 0 0)
(0.13169 0 0)
(0.131771 0 0)
(0.131689 0 0)
(0.131771 0 0)
(0.131689 0 0)
(0.131771 0 0)
(0.131688 0 0)
(0.131772 0 0)
(0.131687 0 0)
(0.131772 0 0)
(0.131687 0 0)
(0.131773 0 0)
(0.131687 0 0)
(0.131773 0 0)
(0.131686 0 0)
(0.131774 0 0)
(0.131686 0 0)
(0.131774 0 0)
(0.131687 0 0)
(0.131775 0 0)
(0.131687 0 0)
(0.131776 0 0)
(0.131688 0 0)
(0.131777 0 0)
(0.131688 0 0)
(0.131778 0 0)
(0.13169 0 0)
(0.131779 0 0)
(0.131691 0 0)
(0.13178 0 0)
(0.131693 0 0)
(0.131781 0 0)
(0.131695 0 0)
(0.131783 0 0)
(0.131697 0 0)
(0.131785 0 0)
(0.1317 0 0)
(0.131787 0 0)
(0.131703 0 0)
(0.13179 0 0)
(0.131707 0 0)
(0.131792 0 0)
(0.131711 0 0)
(0.131796 0 0)
(0.131716 0 0)
(0.131799 0 0)
(0.131721 0 0)
(0.131803 0 0)
(0.131727 0 0)
(0.131808 0 0)
(0.131734 0 0)
(0.131813 0 0)
(0.131741 0 0)
(0.131819 0 0)
(0.131749 0 0)
(0.131825 0 0)
(0.131757 0 0)
(0.131832 0 0)
(0.131767 0 0)
(0.13184 0 0)
(0.131777 0 0)
(0.131849 0 0)
(0.131788 0 0)
(0.131858 0 0)
(0.1318 0 0)
(0.131868 0 0)
(0.131813 0 0)
(0.13188 0 0)
(0.131828 0 0)
(0.131892 0 0)
(0.131843 0 0)
(0.131905 0 0)
(0.131859 0 0)
(0.13192 0 0)
(0.131876 0 0)
(0.131937 0 0)
(0.131894 0 0)
(0.131956 0 0)
(0.131911 0 0)
(0.131981 0 0)
(0.131922 0 0)
(0.132016 0 0)
(0.131922 0 0)
(0.132072 0 0)
(0.131906 0 0)
(0.13215 0 0)
(0.131884 0 0)
(0.132238 0 0)
(0.131893 0 0)
(0.132301 0 0)
(0.131984 0 0)
(0.13233 0 0)
(0.132149 0 0)
(0.132383 0 0)
(0.132317 0 0)
(0.132484 0 0)
(0.132456 0 0)
(0.132597 0 0)
(0.132569 0 0)
(0.132693 0 0)
(0.132655 0 0)
(0.132763 0 0)
(0.132717 0 0)
(0.13281 0 0)
(0.13276 0 0)
(0.132842 0 0)
(0.132791 0 0)
(0.132866 0 0)
(0.132817 0 0)
(0.132886 0 0)
(0.13284 0 0)
(0.132904 0 0)
(0.132862 0 0)
(0.132923 0 0)
(0.132885 0 0)
(0.132943 0 0)
(0.132909 0 0)
(0.132964 0 0)
(0.132933 0 0)
(0.132985 0 0)
(0.132958 0 0)
(0.133008 0 0)
(0.132984 0 0)
(0.133031 0 0)
(0.13301 0 0)
(0.133055 0 0)
(0.133037 0 0)
(0.13308 0 0)
(0.133065 0 0)
(0.133105 0 0)
(0.133093 0 0)
(0.133131 0 0)
(0.133122 0 0)
(0.133158 0 0)
(0.133151 0 0)
(0.133186 0 0)
(0.13318 0 0)
(0.133214 0 0)
(0.13321 0 0)
(0.133242 0 0)
(0.13324 0 0)
(0.13327 0 0)
(0.133271 0 0)
(0.133299 0 0)
(0.133301 0 0)
(0.133328 0 0)
(0.133331 0 0)
(0.133358 0 0)
(0.133362 0 0)
(0.133387 0 0)
(0.133392 0 0)
(0.133416 0 0)
(0.133422 0 0)
(0.133445 0 0)
(0.133452 0 0)
(0.133473 0 0)
(0.133481 0 0)
(0.133502 0 0)
(0.13351 0 0)
(0.133529 0 0)
(0.133538 0 0)
(0.133557 0 0)
(0.133566 0 0)
(0.133583 0 0)
(0.133593 0 0)
(0.133609 0 0)
(0.133618 0 0)
(0.133634 0 0)
(0.133643 0 0)
(0.133658 0 0)
(0.133667 0 0)
(0.13368 0 0)
(0.13369 0 0)
(0.133702 0 0)
(0.133711 0 0)
(0.133722 0 0)
(0.133731 0 0)
(0.13374 0 0)
(0.13375 0 0)
(0.133757 0 0)
(0.133768 0 0)
(0.133771 0 0)
(0.133784 0 0)
(0.133784 0 0)
(0.133798 0 0)
(0.133795 0 0)
(0.133809 0 0)
(0.133807 0 0)
(0.133818 0 0)
(0.133818 0 0)
(0.133827 0 0)
(0.13383 0 0)
(0.133841 0 0)
(0.133847 0 0)
(0.13386 0 0)
(0.133864 0 0)
(0.133861 0 0)
(0.133832 0 0)
(0.133781 0 0)
(0.133701 0 0)
(0.133614 0 0)
(0.133523 0 0)
(0.133448 0 0)
(0.133386 0 0)
(0.133346 0 0)
(0.133317 0 0)
(0.133304 0 0)
(0.133294 0 0)
(0.133292 0 0)
(0.13329 0 0)
(0.133292 0 0)
(0.133292 0 0)
(0.133295 0 0)
(0.133295 0 0)
(0.133298 0 0)
(0.133297 0 0)
(0.133299 0 0)
(0.133298 0 0)
(0.133299 0 0)
(0.133297 0 0)
(0.133297 0 0)
(0.133294 0 0)
(0.133293 0 0)
(0.133289 0 0)
(0.133288 0 0)
(0.133283 0 0)
(0.13328 0 0)
(0.133275 0 0)
(0.133271 0 0)
(0.133265 0 0)
(0.133261 0 0)
(0.133254 0 0)
(0.133249 0 0)
(0.133241 0 0)
(0.133235 0 0)
(0.133227 0 0)
(0.13322 0 0)
(0.133211 0 0)
(0.133203 0 0)
(0.133194 0 0)
(0.133185 0 0)
(0.133175 0 0)
(0.133166 0 0)
(0.133155 0 0)
(0.133145 0 0)
(0.133134 0 0)
(0.133123 0 0)
(0.133112 0 0)
(0.1331 0 0)
(0.133088 0 0)
(0.133076 0 0)
(0.133064 0 0)
(0.133051 0 0)
(0.133038 0 0)
(0.133025 0 0)
(0.133012 0 0)
(0.132999 0 0)
(0.132985 0 0)
(0.132971 0 0)
(0.132957 0 0)
(0.132943 0 0)
(0.132928 0 0)
(0.132914 0 0)
(0.132899 0 0)
(0.132884 0 0)
(0.132869 0 0)
(0.132854 0 0)
(0.132839 0 0)
(0.132824 0 0)
(0.132808 0 0)
(0.132793 0 0)
(0.132778 0 0)
(0.132762 0 0)
(0.132747 0 0)
(0.132731 0 0)
(0.132715 0 0)
(0.1327 0 0)
(0.132684 0 0)
(0.132669 0 0)
(0.132653 0 0)
(0.132637 0 0)
(0.132622 0 0)
(0.132606 0 0)
(0.132591 0 0)
(0.132575 0 0)
(0.13256 0 0)
(0.132545 0 0)
(0.132529 0 0)
(0.132514 0 0)
(0.132499 0 0)
(0.132484 0 0)
(0.132469 0 0)
(0.132454 0 0)
(0.132439 0 0)
(0.132425 0 0)
(0.13241 0 0)
(0.132396 0 0)
(0.132382 0 0)
(0.132368 0 0)
(0.132354 0 0)
(0.13234 0 0)
(0.132326 0 0)
(0.132313 0 0)
(0.132299 0 0)
(0.132286 0 0)
(0.132273 0 0)
(0.13226 0 0)
(0.132247 0 0)
(0.132235 0 0)
(0.132222 0 0)
(0.13221 0 0)
(0.132198 0 0)
(0.132186 0 0)
(0.132175 0 0)
(0.132163 0 0)
(0.132152 0 0)
(0.132141 0 0)
(0.13213 0 0)
(0.132119 0 0)
(0.132109 0 0)
(0.132098 0 0)
(0.132088 0 0)
(0.132078 0 0)
(0.132068 0 0)
(0.132059 0 0)
(0.132049 0 0)
(0.13204 0 0)
(0.132031 0 0)
(0.132022 0 0)
(0.132014 0 0)
(0.132005 0 0)
(0.131997 0 0)
(0.131989 0 0)
(0.131981 0 0)
(0.131973 0 0)
(0.131965 0 0)
(0.131958 0 0)
(0.131951 0 0)
(0.131944 0 0)
(0.131937 0 0)
(0.13193 0 0)
(0.131924 0 0)
(0.131918 0 0)
(0.131911 0 0)
(0.131905 0 0)
(0.1319 0 0)
(0.131894 0 0)
(0.131888 0 0)
(0.131883 0 0)
(0.131878 0 0)
(0.131873 0 0)
(0.131868 0 0)
(0.131863 0 0)
(0.131858 0 0)
(0.131854 0 0)
(0.131849 0 0)
(0.131845 0 0)
(0.131841 0 0)
(0.131837 0 0)
(0.131833 0 0)
(0.131829 0 0)
(0.131826 0 0)
(0.131822 0 0)
(0.131819 0 0)
(0.131816 0 0)
(0.131813 0 0)
(0.13181 0 0)
(0.131807 0 0)
(0.131804 0 0)
(0.131801 0 0)
(0.131798 0 0)
(0.131796 0 0)
(0.131793 0 0)
(0.131791 0 0)
(0.131789 0 0)
(0.131786 0 0)
(0.131784 0 0)
(0.131782 0 0)
(0.13178 0 0)
(0.131778 0 0)
(0.131777 0 0)
(0.131775 0 0)
(0.131773 0 0)
(0.131772 0 0)
(0.13177 0 0)
(0.131769 0 0)
(0.131767 0 0)
(0.131766 0 0)
(0.131764 0 0)
(0.131763 0 0)
(0.131762 0 0)
(0.131761 0 0)
(0.13176 0 0)
(0.131759 0 0)
(0.131758 0 0)
(0.131757 0 0)
(0.131756 0 0)
(0.131755 0 0)
(0.131754 0 0)
(0.131753 0 0)
(0.131752 0 0)
(0.131752 0 0)
(0.131751 0 0)
(0.13175 0 0)
(0.13175 0 0)
(0.131749 0 0)
(0.131749 0 0)
(0.131748 0 0)
(0.131747 0 0)
(0.131747 0 0)
(0.131746 0 0)
(0.131746 0 0)
(0.131746 0 0)
(0.131745 0 0)
(0.131745 0 0)
(0.131744 0 0)
(0.131744 0 0)
(0.131744 0 0)
(0.131743 0 0)
(0.131743 0 0)
(0.131743 0 0)
(0.131743 0 0)
(0.131742 0 0)
(0.131742 0 0)
(0.131742 0 0)
(0.131742 0 0)
(0.131741 0 0)
(0.131741 0 0)
(0.131741 0 0)
(0.131741 0 0)
(0.131741 0 0)
(0.13174 0 0)
(0.13174 0 0)
(0.13174 0 0)
(0.13174 0 0)
(0.13174 0 0)
(0.13174 0 0)
(0.13174 0 0)
(0.13174 0 0)
(0.131739 0 0)
(0.131739 0 0)
(0.131739 0 0)
(0.131739 0 0)
(0.131739 0 0)
(0.131739 0 0)
(0.131739 0 0)
(0.131739 0 0)
(0.131739 0 0)
(0.131739 0 0)
(0.131739 0 0)
(0.131739 0 0)
(0.131739 0 0)
(0.131739 0 0)
(0.131739 0 0)
(0.131739 0 0)
(0.131739 0 0)
(0.131738 0 0)
(0.131738 0 0)
(0.131738 0 0)
(0.131738 0 0)
(0.131738 0 0)
(0.131738 0 0)
(0.131738 0 0)
(0.131738 0 0)
(0.131738 0 0)
(0.131738 0 0)
(0.131738 0 0)
(0.131738 0 0)
(0.131738 0 0)
(0.131738 0 0)
(0.131738 0 0)
(0.131738 0 0)
(0.131738 0 0)
(0.131738 0 0)
(0.131738 0 0)
(0.131738 0 0)
(0.131738 0 0)
(0.131738 0 0)
(0.131738 0 0)
(0.131738 0 0)
(0.131738 0 0)
(0.131738 0 0)
(0.131738 0 0)
(0.131738 0 0)
(0.131738 0 0)
(0.131738 0 0)
(0.131738 0 0)
(0.131738 0 0)
(0.131738 0 0)
(0.131738 0 0)
(0.131738 0 0)
(0.131738 0 0)
(0.131738 0 0)
(0.131738 0 0)
(0.131738 0 0)
(0.131738 0 0)
(0.131738 0 0)
(0.131738 0 0)
(0.131738 0 0)
(0.131738 0 0)
(0.131738 0 0)
(0.131738 0 0)
(0.131738 0 0)
(0.131738 0 0)
(0.131738 0 0)
(0.131738 0 0)
(0.131738 0 0)
(0.131738 0 0)
(0.131738 0 0)
(0.131738 0 0)
(0.131738 0 0)
(0.131738 0 0)
(0.131738 0 0)
(0.131738 0 0)
(0.131738 0 0)
(0.131738 0 0)
(0.131738 0 0)
(0.131738 0 0)
(0.131738 0 0)
(0.131738 0 0)
(0.131738 0 0)
(0.131738 0 0)
(0.131738 0 0)
(0.131738 0 0)
(0.131738 0 0)
(0.131738 0 0)
(0.131738 0 0)
(0.131738 0 0)
(0.131738 0 0)
(0.131738 0 0)
(0.131738 0 0)
(0.131738 0 0)
(0.131738 0 0)
(0.131738 0 0)
(0.131738 0 0)
(0.131738 0 0)
(0.131738 0 0)
(0.131738 0 0)
(0.131738 0 0)
(0.131738 0 0)
(0.131738 0 0)
(0.131738 0 0)
(0.131738 0 0)
(0.131738 0 0)
(0.131738 0 0)
(0.131738 0 0)
(0.131738 0 0)
(0.131738 0 0)
(0.131738 0 0)
(0.131738 0 0)
(0.131738 0 0)
(0.131738 0 0)
(0.131738 0 0)
(0.131738 0 0)
(0.131738 0 0)
(0.131738 0 0)
(0.131738 0 0)
(0.131738 0 0)
(0.131738 0 0)
(0.131738 0 0)
(0.131738 0 0)
(0.131738 0 0)
(0.131738 0 0)
(0.131738 0 0)
(0.131738 0 0)
(0.131738 0 0)
(0.131738 0 0)
(0.131738 0 0)
(0.131738 0 0)
(0.131738 0 0)
(0.131738 0 0)
(0.131738 0 0)
(0.131738 0 0)
(0.131738 0 0)
(0.131738 0 0)
(0.131738 0 0)
(0.131738 0 0)
(0.131738 0 0)
(0.131738 0 0)
(0.131738 0 0)
(0.131738 0 0)
(0.131738 0 0)
(0.131738 0 0)
(0.131738 0 0)
(0.131738 0 0)
(0.131738 0 0)
(0.131738 0 0)
(0.131738 0 0)
(0.131738 0 0)
(0.131738 0 0)
(0.131738 0 0)
(0.131738 0 0)
(0.131738 0 0)
(0.131738 0 0)
(0.131738 0 0)
(0.131738 0 0)
(0.131738 0 0)
(0.131738 0 0)
(0.131738 0 0)
(0.131738 0 0)
(0.131738 0 0)
(0.131738 0 0)
(0.131738 0 0)
(0.131738 0 0)
(0.131738 0 0)
(0.131738 0 0)
(0.131738 0 0)
(0.131738 0 0)
(0.131738 0 0)
(0.131738 0 0)
(0.131738 0 0)
(0.131738 0 0)
(0.131738 0 0)
(0.131738 0 0)
(0.131738 0 0)
(0.131738 0 0)
(0.131738 0 0)
(0.131738 0 0)
(0.131738 0 0)
(0.131738 0 0)
(0.131738 0 0)
(0.131738 0 0)
(0.131738 0 0)
(0.131738 0 0)
(0.131738 0 0)
(0.131738 0 0)
(0.131738 0 0)
(0.131738 0 0)
(0.131738 0 0)
(0.131738 0 0)
(0.131738 0 0)
(0.131738 0 0)
(0.131738 0 0)
(0.131738 0 0)
(0.131738 0 0)
(0.131738 0 0)
(0.131738 0 0)
(0.131738 0 0)
(0.131738 0 0)
(0.131738 0 0)
(0.131738 0 0)
(0.131738 0 0)
(0.131738 0 0)
(0.131738 0 0)
(0.131738 0 0)
(0.131738 0 0)
(0.131738 0 0)
(0.131738 0 0)
(0.131738 0 0)
(0.131738 0 0)
(0.131738 0 0)
(0.131738 0 0)
(0.131738 0 0)
(0.131738 0 0)
(0.131738 0 0)
(0.131738 0 0)
(0.131738 0 0)
(0.131738 0 0)
(0.131738 0 0)
(0.131738 0 0)
(0.131738 0 0)
(0.131738 0 0)
(0.131738 0 0)
(0.131738 0 0)
(0.131738 0 0)
(0.131738 0 0)
(0.131738 0 0)
(0.131738 0 0)
(0.131738 0 0)
(0.131738 0 0)
(0.131738 0 0)
(0.131738 0 0)
(0.131738 0 0)
(0.131738 0 0)
(0.131738 0 0)
(0.131738 0 0)
(0.131738 0 0)
(0.131738 0 0)
(0.131738 0 0)
(0.131738 0 0)
(0.131738 0 0)
(0.131738 0 0)
(0.131738 0 0)
(0.131738 0 0)
(0.131738 0 0)
(0.131738 0 0)
(0.131738 0 0)
(0.131738 0 0)
(0.131738 0 0)
(0.131738 0 0)
(0.131738 0 0)
(0.131738 0 0)
(0.131738 0 0)
(0.131738 0 0)
(0.131738 0 0)
(0.131738 0 0)
(0.131738 0 0)
(0.131738 0 0)
(0.131738 0 0)
(0.131738 0 0)
(0.131738 0 0)
(0.131738 0 0)
(0.131738 0 0)
(0.131738 0 0)
(0.131738 0 0)
(0.131738 0 0)
(0.131738 0 0)
(0.131738 0 0)
(0.131738 0 0)
(0.131738 0 0)
(0.131738 0 0)
(0.131738 0 0)
(0.131738 0 0)
(0.131738 0 0)
(0.131738 0 0)
(0.131738 0 0)
(0.131738 0 0)
(0.131738 0 0)
(0.131738 0 0)
(0.131738 0 0)
(0.131738 0 0)
(0.131738 0 0)
(0.131738 0 0)
(0.131738 0 0)
(0.131738 0 0)
(0.131738 0 0)
(0.131738 0 0)
(0.131738 0 0)
(0.131738 0 0)
(0.131738 0 0)
(0.131738 0 0)
(0.131738 0 0)
(0.131738 0 0)
(0.131738 0 0)
(0.131738 0 0)
(0.131738 0 0)
(0.131738 0 0)
(0.131738 0 0)
(0.131738 0 0)
(0.131738 0 0)
(0.131738 0 0)
(0.131738 0 0)
(0.131738 0 0)
(0.131738 0 0)
(0.131738 0 0)
(0.131738 0 0)
(0.131738 0 0)
(0.131738 0 0)
(0.131738 0 0)
(0.131738 0 0)
(0.131738 0 0)
(0.131738 0 0)
(0.131738 0 0)
(0.131738 0 0)
(0.131738 0 0)
(0.131738 0 0)
(0.131738 0 0)
(0.131738 0 0)
(0.131738 0 0)
(0.131738 0 0)
(0.131738 0 0)
(0.131738 0 0)
(0.131738 0 0)
(0.131738 0 0)
(0.131738 0 0)
(0.131738 0 0)
(0.131738 0 0)
(0.131738 0 0)
(0.131738 0 0)
(0.131738 0 0)
(0.131738 0 0)
(0.131738 0 0)
(0.131738 0 0)
(0.131738 0 0)
(0.131738 0 0)
(0.131738 0 0)
(0.131738 0 0)
(0.131738 0 0)
(0.131738 0 0)
(0.131738 0 0)
(0.131738 0 0)
(0.131738 0 0)
(0.131738 0 0)
(0.131738 0 0)
(0.131738 0 0)
(0.131738 0 0)
(0.131738 0 0)
(0.131738 0 0)
(0.131738 0 0)
(0.131738 0 0)
(0.131738 0 0)
(0.131738 0 0)
(0.131738 0 0)
(0.131738 0 0)
(0.131738 0 0)
(0.131738 0 0)
(0.131738 0 0)
(0.131738 0 0)
(0.131738 0 0)
(0.131738 0 0)
(0.131738 0 0)
(0.131738 0 0)
(0.131738 0 0)
(0.131738 0 0)
(0.131738 0 0)
(0.131738 0 0)
(0.131738 0 0)
(0.131738 0 0)
(0.131738 0 0)
(0.131738 0 0)
(0.131738 0 0)
(0.131738 0 0)
(0.131738 0 0)
(0.131738 0 0)
(0.131738 0 0)
(0.131738 0 0)
(0.131738 0 0)
(0.131738 0 0)
(0.131738 0 0)
(0.131738 0 0)
(0.131738 0 0)
(0.131738 0 0)
(0.131738 0 0)
(0.131738 0 0)
(0.131738 0 0)
(0.131738 0 0)
(0.131738 0 0)
(0.131738 0 0)
(0.131738 0 0)
(0.131738 0 0)
(0.131738 0 0)
(0.131738 0 0)
(0.131738 0 0)
(0.131738 0 0)
(0.131738 0 0)
(0.131738 0 0)
(0.131738 0 0)
(0.131738 0 0)
(0.131738 0 0)
(0.131738 0 0)
(0.131738 0 0)
(0.131738 0 0)
(0.131738 0 0)
(0.131738 0 0)
(0.131738 0 0)
(0.131738 0 0)
(0.131738 0 0)
(0.131738 0 0)
(0.131738 0 0)
(0.131738 0 0)
(0.131738 0 0)
(0.131738 0 0)
(0.131738 0 0)
(0.131738 0 0)
(0.131738 0 0)
(0.131738 0 0)
(0.131738 0 0)
(0.131738 0 0)
(0.131738 0 0)
(0.131738 0 0)
(0.131738 0 0)
(0.131738 0 0)
(0.131738 0 0)
(0.131738 0 0)
(0.131737 0 0)
(0.131739 0 0)
(0.131737 0 0)
(0.131739 0 0)
(0.131737 0 0)
(0.131739 0 0)
(0.131737 0 0)
(0.131739 0 0)
(0.131737 0 0)
(0.131739 0 0)
(0.131737 0 0)
(0.131739 0 0)
(0.131737 0 0)
(0.131739 0 0)
(0.131737 0 0)
(0.131739 0 0)
(0.131737 0 0)
(0.131739 0 0)
(0.131737 0 0)
(0.131739 0 0)
(0.131737 0 0)
(0.13174 0 0)
(0.131736 0 0)
(0.13174 0 0)
(0.131736 0 0)
(0.13174 0 0)
(0.131736 0 0)
(0.13174 0 0)
(0.131736 0 0)
(0.13174 0 0)
(0.131736 0 0)
(0.13174 0 0)
(0.131735 0 0)
(0.131741 0 0)
(0.131735 0 0)
(0.131741 0 0)
(0.131735 0 0)
(0.131741 0 0)
(0.131735 0 0)
(0.131741 0 0)
(0.131734 0 0)
(0.131742 0 0)
(0.131734 0 0)
(0.131742 0 0)
(0.131734 0 0)
(0.131742 0 0)
(0.131733 0 0)
(0.131743 0 0)
(0.131733 0 0)
(0.131743 0 0)
(0.131733 0 0)
(0.131743 0 0)
(0.131732 0 0)
(0.131744 0 0)
(0.131732 0 0)
(0.131744 0 0)
(0.131731 0 0)
(0.131745 0 0)
(0.131731 0 0)
(0.131745 0 0)
(0.13173 0 0)
(0.131746 0 0)
(0.131729 0 0)
(0.131746 0 0)
(0.131729 0 0)
(0.131747 0 0)
(0.131728 0 0)
(0.131747 0 0)
(0.131728 0 0)
(0.131748 0 0)
(0.131727 0 0)
(0.131748 0 0)
(0.131726 0 0)
(0.131749 0 0)
(0.131725 0 0)
(0.13175 0 0)
(0.131724 0 0)
(0.13175 0 0)
(0.131724 0 0)
(0.131751 0 0)
(0.131723 0 0)
(0.131752 0 0)
(0.131722 0 0)
(0.131752 0 0)
(0.131721 0 0)
(0.131753 0 0)
(0.13172 0 0)
(0.131754 0 0)
(0.131719 0 0)
(0.131755 0 0)
(0.131718 0 0)
(0.131755 0 0)
(0.131717 0 0)
(0.131756 0 0)
(0.131716 0 0)
(0.131757 0 0)
(0.131714 0 0)
(0.131758 0 0)
(0.131713 0 0)
(0.131758 0 0)
(0.131712 0 0)
(0.131759 0 0)
(0.131711 0 0)
(0.13176 0 0)
(0.13171 0 0)
(0.131761 0 0)
(0.131708 0 0)
(0.131761 0 0)
(0.131707 0 0)
(0.131762 0 0)
(0.131706 0 0)
(0.131763 0 0)
(0.131705 0 0)
(0.131764 0 0)
(0.131703 0 0)
(0.131764 0 0)
(0.131702 0 0)
(0.131765 0 0)
(0.131701 0 0)
(0.131766 0 0)
(0.131699 0 0)
(0.131766 0 0)
(0.131698 0 0)
(0.131767 0 0)
(0.131697 0 0)
(0.131768 0 0)
(0.131696 0 0)
(0.131768 0 0)
(0.131694 0 0)
)
;

boundaryField
{
    topWall
    {
        type            empty;
    }
    bottomWall
    {
        type            empty;
    }
    leftAndRight_half1
    {
        type            cyclic;
    }
    leftAndRight_half0
    {
        type            cyclic;
    }
    frontAndBack
    {
        type            empty;
    }
}


// ************************************************************************* //
