/*--------------------------------*- C++ -*----------------------------------*\
  =========                 |
  \\      /  F ield         | OpenFOAM: The Open Source CFD Toolbox
   \\    /   O peration     | Website:  https://openfoam.org
    \\  /    A nd           | Version:  9
     \\/     M anipulation  |
\*---------------------------------------------------------------------------*/
FoamFile
{
    format      ascii;
    class       volVectorField;
    location    "4.7";
    object      U;
}
// * * * * * * * * * * * * * * * * * * * * * * * * * * * * * * * * * * * * * //

dimensions      [0 1 -1 0 0 0 0];

internalField   nonuniform List<vector> 
1000
(
(0.13177 0 0)
(0.131695 0 0)
(0.13177 0 0)
(0.131694 0 0)
(0.131771 0 0)
(0.131693 0 0)
(0.131771 0 0)
(0.131693 0 0)
(0.131772 0 0)
(0.131692 0 0)
(0.131772 0 0)
(0.131692 0 0)
(0.131773 0 0)
(0.131692 0 0)
(0.131773 0 0)
(0.131691 0 0)
(0.131774 0 0)
(0.131691 0 0)
(0.131774 0 0)
(0.131692 0 0)
(0.131775 0 0)
(0.131692 0 0)
(0.131776 0 0)
(0.131692 0 0)
(0.131777 0 0)
(0.131693 0 0)
(0.131778 0 0)
(0.131694 0 0)
(0.131779 0 0)
(0.131695 0 0)
(0.13178 0 0)
(0.131697 0 0)
(0.131781 0 0)
(0.131698 0 0)
(0.131782 0 0)
(0.1317 0 0)
(0.131784 0 0)
(0.131703 0 0)
(0.131786 0 0)
(0.131705 0 0)
(0.131788 0 0)
(0.131708 0 0)
(0.13179 0 0)
(0.131712 0 0)
(0.131793 0 0)
(0.131716 0 0)
(0.131796 0 0)
(0.13172 0 0)
(0.131799 0 0)
(0.131725 0 0)
(0.131803 0 0)
(0.13173 0 0)
(0.131807 0 0)
(0.131736 0 0)
(0.131812 0 0)
(0.131742 0 0)
(0.131817 0 0)
(0.131749 0 0)
(0.131822 0 0)
(0.131757 0 0)
(0.131829 0 0)
(0.131765 0 0)
(0.131835 0 0)
(0.131774 0 0)
(0.131843 0 0)
(0.131784 0 0)
(0.131851 0 0)
(0.131794 0 0)
(0.13186 0 0)
(0.131806 0 0)
(0.13187 0 0)
(0.131818 0 0)
(0.131881 0 0)
(0.131832 0 0)
(0.131892 0 0)
(0.131846 0 0)
(0.131905 0 0)
(0.131861 0 0)
(0.131919 0 0)
(0.131877 0 0)
(0.131934 0 0)
(0.131895 0 0)
(0.13195 0 0)
(0.131912 0 0)
(0.131969 0 0)
(0.131928 0 0)
(0.131994 0 0)
(0.131939 0 0)
(0.13203 0 0)
(0.131939 0 0)
(0.132085 0 0)
(0.131923 0 0)
(0.132163 0 0)
(0.131899 0 0)
(0.13225 0 0)
(0.131908 0 0)
(0.132313 0 0)
(0.131998 0 0)
(0.132341 0 0)
(0.132163 0 0)
(0.132394 0 0)
(0.132329 0 0)
(0.132494 0 0)
(0.132467 0 0)
(0.132606 0 0)
(0.132579 0 0)
(0.132701 0 0)
(0.132663 0 0)
(0.132769 0 0)
(0.132724 0 0)
(0.132815 0 0)
(0.132765 0 0)
(0.132846 0 0)
(0.132795 0 0)
(0.132868 0 0)
(0.132818 0 0)
(0.132886 0 0)
(0.132839 0 0)
(0.132903 0 0)
(0.132859 0 0)
(0.13292 0 0)
(0.13288 0 0)
(0.132937 0 0)
(0.132901 0 0)
(0.132956 0 0)
(0.132923 0 0)
(0.132975 0 0)
(0.132946 0 0)
(0.132995 0 0)
(0.132969 0 0)
(0.133015 0 0)
(0.132993 0 0)
(0.133037 0 0)
(0.133017 0 0)
(0.133059 0 0)
(0.133042 0 0)
(0.133082 0 0)
(0.133067 0 0)
(0.133105 0 0)
(0.133093 0 0)
(0.133129 0 0)
(0.133119 0 0)
(0.133153 0 0)
(0.133145 0 0)
(0.133178 0 0)
(0.133172 0 0)
(0.133204 0 0)
(0.133199 0 0)
(0.133229 0 0)
(0.133226 0 0)
(0.133255 0 0)
(0.133254 0 0)
(0.133281 0 0)
(0.133281 0 0)
(0.133307 0 0)
(0.133308 0 0)
(0.133333 0 0)
(0.133336 0 0)
(0.133359 0 0)
(0.133363 0 0)
(0.133385 0 0)
(0.13339 0 0)
(0.133411 0 0)
(0.133416 0 0)
(0.133437 0 0)
(0.133442 0 0)
(0.133462 0 0)
(0.133468 0 0)
(0.133486 0 0)
(0.133493 0 0)
(0.13351 0 0)
(0.133518 0 0)
(0.133534 0 0)
(0.133541 0 0)
(0.133556 0 0)
(0.133564 0 0)
(0.133578 0 0)
(0.133586 0 0)
(0.133599 0 0)
(0.133607 0 0)
(0.133619 0 0)
(0.133626 0 0)
(0.133637 0 0)
(0.133645 0 0)
(0.133655 0 0)
(0.133663 0 0)
(0.13367 0 0)
(0.133679 0 0)
(0.133683 0 0)
(0.133695 0 0)
(0.133695 0 0)
(0.133709 0 0)
(0.133706 0 0)
(0.133719 0 0)
(0.133717 0 0)
(0.133728 0 0)
(0.133729 0 0)
(0.133737 0 0)
(0.133741 0 0)
(0.133751 0 0)
(0.133759 0 0)
(0.133771 0 0)
(0.133776 0 0)
(0.133773 0 0)
(0.133744 0 0)
(0.133694 0 0)
(0.133616 0 0)
(0.133529 0 0)
(0.133438 0 0)
(0.133364 0 0)
(0.133303 0 0)
(0.133264 0 0)
(0.133236 0 0)
(0.133223 0 0)
(0.133215 0 0)
(0.133214 0 0)
(0.133213 0 0)
(0.133217 0 0)
(0.133218 0 0)
(0.133222 0 0)
(0.133224 0 0)
(0.133228 0 0)
(0.133229 0 0)
(0.133232 0 0)
(0.133232 0 0)
(0.133235 0 0)
(0.133235 0 0)
(0.133236 0 0)
(0.133235 0 0)
(0.133236 0 0)
(0.133234 0 0)
(0.133234 0 0)
(0.133231 0 0)
(0.133231 0 0)
(0.133227 0 0)
(0.133226 0 0)
(0.133221 0 0)
(0.133219 0 0)
(0.133214 0 0)
(0.133211 0 0)
(0.133206 0 0)
(0.133201 0 0)
(0.133195 0 0)
(0.133191 0 0)
(0.133184 0 0)
(0.133178 0 0)
(0.133171 0 0)
(0.133164 0 0)
(0.133157 0 0)
(0.133149 0 0)
(0.133141 0 0)
(0.133133 0 0)
(0.133124 0 0)
(0.133116 0 0)
(0.133106 0 0)
(0.133097 0 0)
(0.133087 0 0)
(0.133077 0 0)
(0.133067 0 0)
(0.133057 0 0)
(0.133045 0 0)
(0.133035 0 0)
(0.133023 0 0)
(0.133012 0 0)
(0.133 0 0)
(0.132989 0 0)
(0.132976 0 0)
(0.132964 0 0)
(0.132951 0 0)
(0.132939 0 0)
(0.132926 0 0)
(0.132913 0 0)
(0.1329 0 0)
(0.132887 0 0)
(0.132873 0 0)
(0.13286 0 0)
(0.132846 0 0)
(0.132833 0 0)
(0.132819 0 0)
(0.132805 0 0)
(0.132791 0 0)
(0.132777 0 0)
(0.132762 0 0)
(0.132748 0 0)
(0.132734 0 0)
(0.13272 0 0)
(0.132705 0 0)
(0.132691 0 0)
(0.132676 0 0)
(0.132662 0 0)
(0.132647 0 0)
(0.132633 0 0)
(0.132618 0 0)
(0.132604 0 0)
(0.13259 0 0)
(0.132575 0 0)
(0.132561 0 0)
(0.132547 0 0)
(0.132532 0 0)
(0.132518 0 0)
(0.132504 0 0)
(0.13249 0 0)
(0.132476 0 0)
(0.132462 0 0)
(0.132448 0 0)
(0.132434 0 0)
(0.13242 0 0)
(0.132407 0 0)
(0.132393 0 0)
(0.13238 0 0)
(0.132367 0 0)
(0.132354 0 0)
(0.132341 0 0)
(0.132328 0 0)
(0.132315 0 0)
(0.132302 0 0)
(0.13229 0 0)
(0.132277 0 0)
(0.132265 0 0)
(0.132253 0 0)
(0.132241 0 0)
(0.132229 0 0)
(0.132218 0 0)
(0.132206 0 0)
(0.132195 0 0)
(0.132184 0 0)
(0.132173 0 0)
(0.132162 0 0)
(0.132151 0 0)
(0.132141 0 0)
(0.13213 0 0)
(0.13212 0 0)
(0.13211 0 0)
(0.1321 0 0)
(0.132091 0 0)
(0.132081 0 0)
(0.132072 0 0)
(0.132063 0 0)
(0.132054 0 0)
(0.132045 0 0)
(0.132036 0 0)
(0.132028 0 0)
(0.132019 0 0)
(0.132011 0 0)
(0.132003 0 0)
(0.131995 0 0)
(0.131988 0 0)
(0.13198 0 0)
(0.131973 0 0)
(0.131966 0 0)
(0.131959 0 0)
(0.131952 0 0)
(0.131945 0 0)
(0.131939 0 0)
(0.131932 0 0)
(0.131926 0 0)
(0.13192 0 0)
(0.131914 0 0)
(0.131908 0 0)
(0.131903 0 0)
(0.131897 0 0)
(0.131892 0 0)
(0.131887 0 0)
(0.131881 0 0)
(0.131877 0 0)
(0.131872 0 0)
(0.131867 0 0)
(0.131863 0 0)
(0.131858 0 0)
(0.131854 0 0)
(0.13185 0 0)
(0.131846 0 0)
(0.131842 0 0)
(0.131838 0 0)
(0.131834 0 0)
(0.131831 0 0)
(0.131827 0 0)
(0.131824 0 0)
(0.13182 0 0)
(0.131817 0 0)
(0.131814 0 0)
(0.131811 0 0)
(0.131808 0 0)
(0.131806 0 0)
(0.131803 0 0)
(0.1318 0 0)
(0.131798 0 0)
(0.131795 0 0)
(0.131793 0 0)
(0.131791 0 0)
(0.131789 0 0)
(0.131787 0 0)
(0.131785 0 0)
(0.131783 0 0)
(0.131781 0 0)
(0.131779 0 0)
(0.131777 0 0)
(0.131775 0 0)
(0.131774 0 0)
(0.131772 0 0)
(0.131771 0 0)
(0.131769 0 0)
(0.131768 0 0)
(0.131767 0 0)
(0.131765 0 0)
(0.131764 0 0)
(0.131763 0 0)
(0.131762 0 0)
(0.131761 0 0)
(0.13176 0 0)
(0.131759 0 0)
(0.131758 0 0)
(0.131757 0 0)
(0.131756 0 0)
(0.131755 0 0)
(0.131754 0 0)
(0.131753 0 0)
(0.131753 0 0)
(0.131752 0 0)
(0.131751 0 0)
(0.131751 0 0)
(0.13175 0 0)
(0.131749 0 0)
(0.131749 0 0)
(0.131748 0 0)
(0.131748 0 0)
(0.131747 0 0)
(0.131747 0 0)
(0.131746 0 0)
(0.131746 0 0)
(0.131746 0 0)
(0.131745 0 0)
(0.131745 0 0)
(0.131744 0 0)
(0.131744 0 0)
(0.131744 0 0)
(0.131743 0 0)
(0.131743 0 0)
(0.131743 0 0)
(0.131743 0 0)
(0.131742 0 0)
(0.131742 0 0)
(0.131742 0 0)
(0.131742 0 0)
(0.131741 0 0)
(0.131741 0 0)
(0.131741 0 0)
(0.131741 0 0)
(0.131741 0 0)
(0.131741 0 0)
(0.13174 0 0)
(0.13174 0 0)
(0.13174 0 0)
(0.13174 0 0)
(0.13174 0 0)
(0.13174 0 0)
(0.13174 0 0)
(0.13174 0 0)
(0.13174 0 0)
(0.131739 0 0)
(0.131739 0 0)
(0.131739 0 0)
(0.131739 0 0)
(0.131739 0 0)
(0.131739 0 0)
(0.131739 0 0)
(0.131739 0 0)
(0.131739 0 0)
(0.131739 0 0)
(0.131739 0 0)
(0.131739 0 0)
(0.131739 0 0)
(0.131739 0 0)
(0.131739 0 0)
(0.131739 0 0)
(0.131739 0 0)
(0.131738 0 0)
(0.131738 0 0)
(0.131738 0 0)
(0.131738 0 0)
(0.131738 0 0)
(0.131738 0 0)
(0.131738 0 0)
(0.131738 0 0)
(0.131738 0 0)
(0.131738 0 0)
(0.131738 0 0)
(0.131738 0 0)
(0.131738 0 0)
(0.131738 0 0)
(0.131738 0 0)
(0.131738 0 0)
(0.131738 0 0)
(0.131738 0 0)
(0.131738 0 0)
(0.131738 0 0)
(0.131738 0 0)
(0.131738 0 0)
(0.131738 0 0)
(0.131738 0 0)
(0.131738 0 0)
(0.131738 0 0)
(0.131738 0 0)
(0.131738 0 0)
(0.131738 0 0)
(0.131738 0 0)
(0.131738 0 0)
(0.131738 0 0)
(0.131738 0 0)
(0.131738 0 0)
(0.131738 0 0)
(0.131738 0 0)
(0.131738 0 0)
(0.131738 0 0)
(0.131738 0 0)
(0.131738 0 0)
(0.131738 0 0)
(0.131738 0 0)
(0.131738 0 0)
(0.131738 0 0)
(0.131738 0 0)
(0.131738 0 0)
(0.131738 0 0)
(0.131738 0 0)
(0.131738 0 0)
(0.131738 0 0)
(0.131738 0 0)
(0.131738 0 0)
(0.131738 0 0)
(0.131738 0 0)
(0.131738 0 0)
(0.131738 0 0)
(0.131738 0 0)
(0.131738 0 0)
(0.131738 0 0)
(0.131738 0 0)
(0.131738 0 0)
(0.131738 0 0)
(0.131738 0 0)
(0.131738 0 0)
(0.131738 0 0)
(0.131738 0 0)
(0.131738 0 0)
(0.131738 0 0)
(0.131738 0 0)
(0.131738 0 0)
(0.131738 0 0)
(0.131738 0 0)
(0.131738 0 0)
(0.131738 0 0)
(0.131738 0 0)
(0.131738 0 0)
(0.131738 0 0)
(0.131738 0 0)
(0.131738 0 0)
(0.131738 0 0)
(0.131738 0 0)
(0.131738 0 0)
(0.131738 0 0)
(0.131738 0 0)
(0.131738 0 0)
(0.131738 0 0)
(0.131738 0 0)
(0.131738 0 0)
(0.131738 0 0)
(0.131738 0 0)
(0.131738 0 0)
(0.131738 0 0)
(0.131738 0 0)
(0.131738 0 0)
(0.131738 0 0)
(0.131738 0 0)
(0.131738 0 0)
(0.131738 0 0)
(0.131738 0 0)
(0.131738 0 0)
(0.131738 0 0)
(0.131738 0 0)
(0.131738 0 0)
(0.131738 0 0)
(0.131738 0 0)
(0.131738 0 0)
(0.131738 0 0)
(0.131738 0 0)
(0.131738 0 0)
(0.131738 0 0)
(0.131738 0 0)
(0.131738 0 0)
(0.131738 0 0)
(0.131738 0 0)
(0.131738 0 0)
(0.131738 0 0)
(0.131738 0 0)
(0.131738 0 0)
(0.131738 0 0)
(0.131738 0 0)
(0.131738 0 0)
(0.131738 0 0)
(0.131738 0 0)
(0.131738 0 0)
(0.131738 0 0)
(0.131738 0 0)
(0.131738 0 0)
(0.131738 0 0)
(0.131738 0 0)
(0.131738 0 0)
(0.131738 0 0)
(0.131738 0 0)
(0.131738 0 0)
(0.131738 0 0)
(0.131738 0 0)
(0.131738 0 0)
(0.131738 0 0)
(0.131738 0 0)
(0.131738 0 0)
(0.131738 0 0)
(0.131738 0 0)
(0.131738 0 0)
(0.131738 0 0)
(0.131738 0 0)
(0.131738 0 0)
(0.131738 0 0)
(0.131738 0 0)
(0.131738 0 0)
(0.131738 0 0)
(0.131738 0 0)
(0.131738 0 0)
(0.131738 0 0)
(0.131738 0 0)
(0.131738 0 0)
(0.131738 0 0)
(0.131738 0 0)
(0.131738 0 0)
(0.131738 0 0)
(0.131738 0 0)
(0.131738 0 0)
(0.131738 0 0)
(0.131738 0 0)
(0.131738 0 0)
(0.131738 0 0)
(0.131738 0 0)
(0.131738 0 0)
(0.131738 0 0)
(0.131738 0 0)
(0.131738 0 0)
(0.131738 0 0)
(0.131738 0 0)
(0.131738 0 0)
(0.131738 0 0)
(0.131738 0 0)
(0.131738 0 0)
(0.131738 0 0)
(0.131738 0 0)
(0.131738 0 0)
(0.131738 0 0)
(0.131738 0 0)
(0.131738 0 0)
(0.131738 0 0)
(0.131738 0 0)
(0.131738 0 0)
(0.131738 0 0)
(0.131738 0 0)
(0.131738 0 0)
(0.131738 0 0)
(0.131738 0 0)
(0.131738 0 0)
(0.131738 0 0)
(0.131738 0 0)
(0.131738 0 0)
(0.131738 0 0)
(0.131738 0 0)
(0.131738 0 0)
(0.131738 0 0)
(0.131738 0 0)
(0.131738 0 0)
(0.131738 0 0)
(0.131738 0 0)
(0.131738 0 0)
(0.131738 0 0)
(0.131738 0 0)
(0.131738 0 0)
(0.131738 0 0)
(0.131738 0 0)
(0.131738 0 0)
(0.131738 0 0)
(0.131738 0 0)
(0.131738 0 0)
(0.131738 0 0)
(0.131738 0 0)
(0.131738 0 0)
(0.131738 0 0)
(0.131738 0 0)
(0.131738 0 0)
(0.131738 0 0)
(0.131738 0 0)
(0.131738 0 0)
(0.131738 0 0)
(0.131738 0 0)
(0.131738 0 0)
(0.131738 0 0)
(0.131738 0 0)
(0.131738 0 0)
(0.131738 0 0)
(0.131738 0 0)
(0.131738 0 0)
(0.131738 0 0)
(0.131738 0 0)
(0.131738 0 0)
(0.131738 0 0)
(0.131738 0 0)
(0.131738 0 0)
(0.131738 0 0)
(0.131738 0 0)
(0.131738 0 0)
(0.131738 0 0)
(0.131738 0 0)
(0.131738 0 0)
(0.131738 0 0)
(0.131738 0 0)
(0.131738 0 0)
(0.131738 0 0)
(0.131738 0 0)
(0.131738 0 0)
(0.131738 0 0)
(0.131738 0 0)
(0.131738 0 0)
(0.131738 0 0)
(0.131738 0 0)
(0.131738 0 0)
(0.131738 0 0)
(0.131738 0 0)
(0.131738 0 0)
(0.131738 0 0)
(0.131738 0 0)
(0.131738 0 0)
(0.131738 0 0)
(0.131738 0 0)
(0.131738 0 0)
(0.131738 0 0)
(0.131738 0 0)
(0.131738 0 0)
(0.131738 0 0)
(0.131738 0 0)
(0.131738 0 0)
(0.131738 0 0)
(0.131738 0 0)
(0.131738 0 0)
(0.131738 0 0)
(0.131738 0 0)
(0.131738 0 0)
(0.131738 0 0)
(0.131738 0 0)
(0.131738 0 0)
(0.131738 0 0)
(0.131738 0 0)
(0.131738 0 0)
(0.131738 0 0)
(0.131738 0 0)
(0.131738 0 0)
(0.131738 0 0)
(0.131738 0 0)
(0.131738 0 0)
(0.131738 0 0)
(0.131738 0 0)
(0.131738 0 0)
(0.131738 0 0)
(0.131738 0 0)
(0.131738 0 0)
(0.131738 0 0)
(0.131738 0 0)
(0.131738 0 0)
(0.131738 0 0)
(0.131738 0 0)
(0.131738 0 0)
(0.131738 0 0)
(0.131738 0 0)
(0.131738 0 0)
(0.131738 0 0)
(0.131738 0 0)
(0.131738 0 0)
(0.131738 0 0)
(0.131738 0 0)
(0.131738 0 0)
(0.131738 0 0)
(0.131738 0 0)
(0.131738 0 0)
(0.131738 0 0)
(0.131738 0 0)
(0.131738 0 0)
(0.131738 0 0)
(0.131738 0 0)
(0.131738 0 0)
(0.131738 0 0)
(0.131738 0 0)
(0.131738 0 0)
(0.131738 0 0)
(0.131738 0 0)
(0.131738 0 0)
(0.131738 0 0)
(0.131738 0 0)
(0.131738 0 0)
(0.131738 0 0)
(0.131738 0 0)
(0.131738 0 0)
(0.131738 0 0)
(0.131738 0 0)
(0.131738 0 0)
(0.131738 0 0)
(0.131738 0 0)
(0.131738 0 0)
(0.131738 0 0)
(0.131738 0 0)
(0.131738 0 0)
(0.131738 0 0)
(0.131738 0 0)
(0.131738 0 0)
(0.131738 0 0)
(0.131738 0 0)
(0.131738 0 0)
(0.131738 0 0)
(0.131738 0 0)
(0.131738 0 0)
(0.131738 0 0)
(0.131738 0 0)
(0.131738 0 0)
(0.131738 0 0)
(0.131738 0 0)
(0.131738 0 0)
(0.131738 0 0)
(0.131738 0 0)
(0.131738 0 0)
(0.131738 0 0)
(0.131738 0 0)
(0.131738 0 0)
(0.131738 0 0)
(0.131738 0 0)
(0.131738 0 0)
(0.131738 0 0)
(0.131738 0 0)
(0.131738 0 0)
(0.131738 0 0)
(0.131738 0 0)
(0.131738 0 0)
(0.131738 0 0)
(0.131738 0 0)
(0.131738 0 0)
(0.131738 0 0)
(0.131738 0 0)
(0.131738 0 0)
(0.131738 0 0)
(0.131738 0 0)
(0.131738 0 0)
(0.131738 0 0)
(0.131738 0 0)
(0.131738 0 0)
(0.131738 0 0)
(0.131738 0 0)
(0.131738 0 0)
(0.131738 0 0)
(0.131738 0 0)
(0.131739 0 0)
(0.131737 0 0)
(0.131739 0 0)
(0.131737 0 0)
(0.131739 0 0)
(0.131737 0 0)
(0.131739 0 0)
(0.131737 0 0)
(0.131739 0 0)
(0.131737 0 0)
(0.131739 0 0)
(0.131737 0 0)
(0.131739 0 0)
(0.131737 0 0)
(0.131739 0 0)
(0.131737 0 0)
(0.131739 0 0)
(0.131737 0 0)
(0.131739 0 0)
(0.131737 0 0)
(0.131739 0 0)
(0.131737 0 0)
(0.131739 0 0)
(0.131736 0 0)
(0.13174 0 0)
(0.131736 0 0)
(0.13174 0 0)
(0.131736 0 0)
(0.13174 0 0)
(0.131736 0 0)
(0.13174 0 0)
(0.131736 0 0)
(0.13174 0 0)
(0.131736 0 0)
(0.13174 0 0)
(0.131735 0 0)
(0.131741 0 0)
(0.131735 0 0)
(0.131741 0 0)
(0.131735 0 0)
(0.131741 0 0)
(0.131735 0 0)
(0.131741 0 0)
(0.131734 0 0)
(0.131742 0 0)
(0.131734 0 0)
(0.131742 0 0)
(0.131734 0 0)
(0.131742 0 0)
(0.131733 0 0)
(0.131743 0 0)
(0.131733 0 0)
(0.131743 0 0)
(0.131733 0 0)
(0.131743 0 0)
(0.131732 0 0)
(0.131744 0 0)
(0.131732 0 0)
(0.131744 0 0)
(0.131731 0 0)
(0.131744 0 0)
(0.131731 0 0)
(0.131745 0 0)
(0.13173 0 0)
(0.131745 0 0)
(0.13173 0 0)
(0.131746 0 0)
(0.131729 0 0)
(0.131746 0 0)
(0.131729 0 0)
(0.131747 0 0)
(0.131728 0 0)
(0.131747 0 0)
(0.131727 0 0)
(0.131748 0 0)
(0.131727 0 0)
(0.131749 0 0)
(0.131726 0 0)
(0.131749 0 0)
(0.131725 0 0)
(0.13175 0 0)
(0.131725 0 0)
(0.13175 0 0)
(0.131724 0 0)
(0.131751 0 0)
(0.131723 0 0)
(0.131752 0 0)
(0.131722 0 0)
(0.131752 0 0)
(0.131721 0 0)
(0.131753 0 0)
(0.13172 0 0)
(0.131754 0 0)
(0.131719 0 0)
(0.131754 0 0)
(0.131718 0 0)
(0.131755 0 0)
(0.131718 0 0)
(0.131756 0 0)
(0.131717 0 0)
(0.131757 0 0)
(0.131716 0 0)
(0.131757 0 0)
(0.131714 0 0)
(0.131758 0 0)
(0.131713 0 0)
(0.131759 0 0)
(0.131712 0 0)
(0.13176 0 0)
(0.131711 0 0)
(0.13176 0 0)
(0.13171 0 0)
(0.131761 0 0)
(0.131709 0 0)
(0.131762 0 0)
(0.131708 0 0)
(0.131762 0 0)
(0.131707 0 0)
(0.131763 0 0)
(0.131706 0 0)
(0.131764 0 0)
(0.131705 0 0)
(0.131764 0 0)
(0.131703 0 0)
(0.131765 0 0)
(0.131702 0 0)
(0.131766 0 0)
(0.131701 0 0)
(0.131766 0 0)
(0.1317 0 0)
(0.131767 0 0)
(0.131699 0 0)
(0.131768 0 0)
(0.131698 0 0)
(0.131768 0 0)
(0.131697 0 0)
(0.131769 0 0)
(0.131696 0 0)
(0.131769 0 0)
(0.131695 0 0)
)
;

boundaryField
{
    topWall
    {
        type            empty;
    }
    bottomWall
    {
        type            empty;
    }
    leftAndRight_half1
    {
        type            cyclic;
    }
    leftAndRight_half0
    {
        type            cyclic;
    }
    frontAndBack
    {
        type            empty;
    }
}


// ************************************************************************* //
