/*--------------------------------*- C++ -*----------------------------------*\
  =========                 |
  \\      /  F ield         | OpenFOAM: The Open Source CFD Toolbox
   \\    /   O peration     | Website:  https://openfoam.org
    \\  /    A nd           | Version:  9
     \\/     M anipulation  |
\*---------------------------------------------------------------------------*/
FoamFile
{
    format      ascii;
    class       volScalarField;
    location    "0.65";
    object      f_0;
}
// * * * * * * * * * * * * * * * * * * * * * * * * * * * * * * * * * * * * * //

dimensions      [1 -3 0 0 0 0 0];

internalField   nonuniform List<scalar> 
1000
(
666.667
666.667
666.667
666.667
666.667
666.667
666.667
666.667
666.667
666.667
666.667
666.667
666.667
666.667
666.667
666.667
666.667
666.667
666.667
666.667
666.667
666.667
666.667
666.667
666.667
666.667
666.667
666.667
666.667
666.667
666.667
666.667
666.667
666.667
666.667
666.667
666.667
666.667
666.667
666.667
666.667
666.667
666.667
666.667
666.667
666.667
666.667
666.667
666.667
666.667
666.667
666.667
666.667
666.667
666.667
666.667
666.667
666.667
666.667
666.667
666.667
666.667
666.667
666.667
666.667
666.667
666.667
666.667
666.667
666.667
666.667
666.667
666.667
666.667
666.667
666.667
666.667
666.667
666.667
666.667
666.667
666.667
666.667
666.667
666.667
666.667
666.667
666.667
666.667
666.667
666.667
666.667
666.667
666.667
666.667
666.667
666.667
666.667
666.667
666.667
666.667
666.667
666.667
666.667
666.667
666.667
666.667
666.667
666.667
666.667
666.667
666.667
666.667
666.667
666.667
666.667
666.667
666.667
666.667
666.667
666.667
666.667
666.667
666.667
666.667
666.667
666.667
666.667
666.667
666.667
666.667
666.667
666.667
666.667
666.667
666.667
666.667
666.667
666.667
666.667
666.667
666.667
666.667
666.667
666.667
666.667
666.667
666.667
666.667
666.667
666.667
666.667
666.667
666.667
666.667
666.667
666.667
666.667
666.667
666.667
666.667
666.667
666.667
666.667
666.667
666.667
666.667
666.667
666.667
666.667
666.667
666.667
666.667
666.667
666.667
666.667
666.667
666.667
666.666
666.666
666.666
666.666
666.666
666.666
666.666
666.666
666.666
666.666
666.666
666.666
666.666
666.666
666.666
666.666
666.666
666.666
666.666
666.666
666.666
666.666
666.666
666.666
666.666
666.666
666.666
666.666
666.666
666.666
666.666
666.666
666.666
666.666
666.666
666.666
666.666
666.666
666.666
666.666
666.666
666.666
666.666
666.666
666.666
666.666
666.666
666.666
666.666
666.665
666.665
666.665
666.665
666.665
666.665
666.665
666.665
666.665
666.665
666.665
666.665
666.665
666.665
666.665
666.665
666.665
666.665
666.664
666.664
666.664
666.664
666.664
666.664
666.664
666.664
666.664
666.664
666.664
666.664
666.663
666.663
666.663
666.663
666.663
666.663
666.663
666.663
666.663
666.662
666.662
666.662
666.662
666.662
666.662
666.662
666.662
666.661
666.661
666.661
666.661
666.661
666.661
666.66
666.66
666.66
666.66
666.66
666.66
666.659
666.659
666.659
666.659
666.659
666.658
666.658
666.658
666.658
666.658
666.657
666.657
666.657
666.657
666.656
666.656
666.656
666.656
666.655
666.655
666.655
666.655
666.654
666.654
666.654
666.654
666.653
666.653
666.653
666.652
666.652
666.652
666.651
666.651
666.651
666.651
666.65
666.65
666.65
666.649
666.649
666.649
666.648
666.648
666.647
666.647
666.647
666.646
666.646
666.646
666.645
666.645
666.644
666.644
666.644
666.643
666.643
666.643
666.642
666.642
666.641
666.641
666.64
666.64
666.64
666.639
666.639
666.638
666.638
666.637
666.637
666.637
666.636
666.636
666.635
666.635
666.634
666.634
666.633
666.633
666.632
666.632
666.631
666.631
666.63
666.63
666.63
666.629
666.629
666.628
666.628
666.627
666.627
666.626
666.626
666.625
666.625
666.624
666.624
666.623
666.623
666.622
666.622
666.621
666.621
666.62
666.62
666.619
666.619
666.618
666.618
666.617
666.617
666.616
666.616
666.615
666.615
666.614
666.614
666.613
666.613
666.612
666.612
666.611
666.611
666.61
666.61
666.609
666.609
666.608
666.608
666.607
666.607
666.606
666.606
666.605
666.605
666.604
666.604
666.603
666.603
666.602
666.602
666.601
666.601
666.6
666.6
666.599
666.599
666.598
666.598
666.597
666.597
666.596
666.596
666.596
666.595
666.595
666.594
666.594
666.593
666.593
666.592
666.592
666.591
666.591
666.591
666.59
666.59
666.589
666.589
666.588
666.588
666.588
666.587
666.587
666.586
666.586
666.586
666.585
666.585
666.584
666.584
666.583
666.583
666.583
666.582
666.582
666.582
666.581
666.581
666.58
666.58
666.58
666.579
666.579
666.579
666.578
666.578
666.577
666.577
666.577
666.576
666.576
666.576
666.575
666.575
666.575
666.574
666.574
666.574
666.573
666.573
666.573
666.572
666.572
666.572
666.571
666.571
666.571
666.571
666.57
666.57
666.57
666.569
666.569
666.569
666.568
666.568
666.568
666.568
666.567
666.567
666.567
666.566
666.566
666.566
666.566
666.565
666.565
666.565
666.565
666.564
666.564
666.564
666.564
666.563
666.563
666.563
666.563
666.562
666.562
666.562
666.562
666.561
666.561
666.561
666.561
666.561
666.56
666.56
666.56
666.56
666.56
666.559
666.559
666.559
666.559
666.559
666.558
666.558
666.558
666.558
666.558
666.557
666.557
666.557
666.557
666.557
666.556
666.556
666.556
666.556
666.556
666.556
666.555
666.555
666.555
666.555
666.555
666.555
666.555
666.554
666.554
666.554
666.554
666.554
666.554
666.554
666.553
666.553
666.553
666.553
666.553
666.553
666.553
666.553
666.552
666.552
666.552
666.552
666.552
666.552
666.552
666.552
666.552
666.552
666.551
666.551
666.551
666.551
666.551
666.551
666.551
666.551
666.551
666.551
666.551
666.551
666.551
666.551
666.551
666.551
666.55
666.55
666.55
666.55
666.55
666.55
666.55
666.55
666.55
666.55
666.55
666.55
666.551
666.551
666.551
666.551
666.551
666.551
666.551
666.551
666.551
666.551
666.551
666.551
666.551
666.552
666.552
666.552
666.552
666.552
666.552
666.553
666.553
666.553
666.553
666.554
666.554
666.554
666.555
666.555
666.555
666.556
666.556
666.556
666.557
666.557
666.558
666.558
666.559
666.559
666.56
666.561
666.561
666.562
666.563
666.563
666.564
666.565
666.566
666.567
666.568
666.569
666.57
666.571
666.572
666.573
666.574
666.576
666.577
666.578
666.58
666.581
666.583
666.585
666.586
666.588
666.59
666.592
666.594
666.597
666.599
666.601
666.604
666.607
666.609
666.612
666.615
666.618
666.622
666.625
666.629
666.632
666.636
666.64
666.644
666.649
666.653
666.658
666.663
666.668
666.673
666.679
666.684
666.69
666.696
666.703
666.709
666.716
666.723
666.73
666.738
666.746
666.753
666.762
666.77
666.779
666.788
666.797
666.806
666.815
666.825
666.835
666.845
666.856
666.866
666.877
666.887
666.898
666.909
666.92
666.931
666.942
666.953
666.965
666.976
666.987
666.997
667.008
667.019
667.029
667.039
667.049
667.058
667.067
667.076
667.084
667.092
667.099
667.106
667.113
667.118
667.123
667.128
667.132
667.135
667.138
667.14
667.141
667.141
667.141
667.141
667.139
667.137
667.134
667.131
667.127
667.122
667.117
667.112
667.106
667.099
667.092
667.085
667.077
667.069
667.06
667.052
667.043
667.034
667.025
667.015
667.006
666.996
666.987
666.977
666.967
666.958
666.948
666.939
666.93
666.92
666.911
666.902
666.894
666.885
666.876
666.868
666.86
666.852
666.845
666.837
666.83
666.823
666.816
666.81
666.803
666.797
666.791
666.786
666.78
666.775
666.77
666.765
666.76
666.756
666.752
666.747
666.743
666.74
666.736
666.733
666.729
666.726
666.723
666.72
666.717
666.715
666.712
666.71
666.708
666.705
666.703
666.701
666.7
666.698
666.696
666.695
666.693
666.692
666.69
666.689
666.688
666.687
666.685
666.684
666.683
666.682
666.682
666.681
666.68
666.679
666.678
666.678
666.677
666.677
666.676
666.675
666.675
666.674
666.674
666.674
666.673
666.673
666.672
666.672
666.672
666.671
666.671
666.671
666.671
666.67
666.67
666.67
666.67
666.67
666.669
666.669
666.669
666.669
666.669
666.669
666.669
666.668
666.668
666.668
666.668
666.668
666.668
666.668
666.668
666.668
666.668
666.668
666.668
666.667
666.667
666.667
666.667
666.667
666.667
666.667
666.667
666.667
666.667
666.667
666.667
666.667
666.667
666.667
666.667
666.667
666.667
666.667
666.667
666.667
666.667
666.667
666.667
666.667
666.667
666.667
666.667
666.667
666.667
666.667
666.667
666.667
666.667
666.667
666.667
666.667
666.667
666.667
666.667
666.667
666.667
666.667
666.667
666.667
666.667
666.667
666.667
666.667
666.667
666.667
666.667
666.667
666.667
666.667
666.667
666.667
666.667
666.667
666.667
666.667
666.667
666.667
666.667
666.667
666.667
666.667
666.667
666.667
666.667
666.667
666.667
666.667
666.667
666.667
666.667
666.667
666.667
666.667
666.667
666.667
666.667
666.667
666.667
666.667
666.667
666.667
)
;

boundaryField
{
    topWall
    {
        type            empty;
    }
    bottomWall
    {
        type            empty;
    }
    leftAndRight_half1
    {
        type            cyclic;
    }
    leftAndRight_half0
    {
        type            cyclic;
    }
    frontAndBack
    {
        type            empty;
    }
}


// ************************************************************************* //
