/*--------------------------------*- C++ -*----------------------------------*\
  =========                 |
  \\      /  F ield         | OpenFOAM: The Open Source CFD Toolbox
   \\    /   O peration     | Website:  https://openfoam.org
    \\  /    A nd           | Version:  9
     \\/     M anipulation  |
\*---------------------------------------------------------------------------*/
FoamFile
{
    format      ascii;
    class       volScalarField;
    location    "0.65";
    object      f_1;
}
// * * * * * * * * * * * * * * * * * * * * * * * * * * * * * * * * * * * * * //

dimensions      [1 -3 0 0 0 0 0];

internalField   nonuniform List<scalar> 
1000
(
168.881
168.881
168.881
168.881
168.881
168.881
168.881
168.881
168.881
168.881
168.881
168.881
168.881
168.881
168.881
168.881
168.881
168.881
168.881
168.881
168.881
168.881
168.881
168.881
168.881
168.881
168.881
168.881
168.881
168.881
168.881
168.881
168.881
168.881
168.881
168.881
168.881
168.881
168.881
168.881
168.881
168.881
168.881
168.881
168.881
168.881
168.881
168.881
168.881
168.881
168.881
168.881
168.881
168.881
168.881
168.881
168.881
168.881
168.881
168.881
168.881
168.881
168.881
168.881
168.881
168.881
168.881
168.881
168.881
168.881
168.881
168.881
168.881
168.881
168.881
168.881
168.881
168.881
168.881
168.881
168.881
168.881
168.881
168.881
168.881
168.881
168.881
168.881
168.881
168.881
168.881
168.881
168.881
168.881
168.881
168.881
168.881
168.881
168.881
168.881
168.881
168.881
168.881
168.881
168.881
168.881
168.881
168.881
168.881
168.881
168.881
168.881
168.881
168.881
168.881
168.881
168.881
168.881
168.881
168.881
168.881
168.881
168.881
168.881
168.881
168.881
168.881
168.881
168.881
168.881
168.881
168.881
168.881
168.881
168.881
168.881
168.881
168.881
168.881
168.881
168.881
168.881
168.881
168.882
168.882
168.882
168.882
168.882
168.882
168.882
168.882
168.882
168.882
168.882
168.882
168.882
168.882
168.882
168.882
168.882
168.882
168.882
168.882
168.882
168.882
168.882
168.882
168.882
168.882
168.882
168.882
168.882
168.883
168.883
168.883
168.883
168.883
168.883
168.883
168.883
168.883
168.883
168.883
168.883
168.884
168.884
168.884
168.884
168.884
168.884
168.884
168.884
168.885
168.885
168.885
168.885
168.885
168.885
168.886
168.886
168.886
168.886
168.886
168.887
168.887
168.887
168.887
168.888
168.888
168.888
168.889
168.889
168.889
168.89
168.89
168.89
168.891
168.891
168.891
168.892
168.892
168.893
168.893
168.894
168.894
168.895
168.895
168.896
168.897
168.897
168.898
168.898
168.899
168.9
168.901
168.901
168.902
168.903
168.904
168.905
168.905
168.906
168.907
168.908
168.909
168.91
168.912
168.913
168.914
168.915
168.916
168.918
168.919
168.92
168.922
168.923
168.925
168.926
168.928
168.929
168.931
168.933
168.935
168.937
168.938
168.94
168.942
168.945
168.947
168.949
168.951
168.954
168.956
168.958
168.961
168.964
168.966
168.969
168.972
168.975
168.978
168.981
168.984
168.987
168.991
168.994
168.998
169.001
169.005
169.009
169.013
169.017
169.021
169.025
169.029
169.034
169.038
169.043
169.048
169.052
169.057
169.063
169.068
169.073
169.079
169.084
169.09
169.096
169.102
169.108
169.114
169.12
169.127
169.134
169.141
169.147
169.155
169.162
169.169
169.177
169.185
169.192
169.201
169.209
169.217
169.226
169.234
169.243
169.252
169.262
169.271
169.281
169.29
169.3
169.311
169.321
169.331
169.342
169.353
169.364
169.375
169.387
169.399
169.411
169.423
169.435
169.448
169.46
169.473
169.486
169.5
169.513
169.527
169.541
169.556
169.57
169.585
169.6
169.615
169.63
169.646
169.662
169.678
169.694
169.711
169.727
169.744
169.762
169.779
169.797
169.815
169.833
169.852
169.87
169.889
169.909
169.928
169.948
169.968
169.988
170.008
170.029
170.05
170.071
170.093
170.115
170.137
170.159
170.182
170.204
170.227
170.251
170.274
170.298
170.322
170.347
170.371
170.396
170.421
170.447
170.472
170.498
170.524
170.551
170.577
170.604
170.632
170.659
170.687
170.715
170.743
170.772
170.801
170.83
170.859
170.889
170.918
170.949
170.979
171.01
171.041
171.072
171.103
171.135
171.167
171.199
171.231
171.264
171.297
171.33
171.364
171.397
171.431
171.466
171.5
171.535
171.57
171.605
171.641
171.676
171.712
171.749
171.785
171.822
171.859
171.896
171.933
171.971
172.009
172.047
172.086
172.124
172.163
172.202
172.242
172.281
172.321
172.361
172.401
172.442
172.483
172.524
172.565
172.606
172.648
172.69
172.732
172.774
172.817
172.86
172.902
172.946
172.989
173.033
173.077
173.121
173.165
173.209
173.254
173.299
173.344
173.389
173.435
173.481
173.527
173.573
173.619
173.666
173.712
173.759
173.806
173.854
173.901
173.949
173.997
174.045
174.093
174.141
174.19
174.239
174.288
174.337
174.387
174.436
174.486
174.536
174.586
174.636
174.687
174.737
174.788
174.839
174.89
174.941
174.993
175.044
175.096
175.148
175.2
175.253
175.305
175.358
175.411
175.464
175.517
175.57
175.623
175.677
175.731
175.785
175.839
175.893
175.947
176.002
176.056
176.111
176.166
176.221
176.276
176.332
176.387
176.443
176.498
176.554
176.61
176.667
176.723
176.779
176.836
176.893
176.95
177.007
177.064
177.121
177.178
177.236
177.293
177.351
177.409
177.467
177.525
177.583
177.642
177.7
177.759
177.817
177.876
177.935
177.994
178.053
178.113
178.172
178.232
178.291
178.351
178.411
178.471
178.531
178.591
178.651
178.711
178.772
178.832
178.893
178.954
179.015
179.075
179.136
179.198
179.259
179.32
179.381
179.443
179.504
179.566
179.628
179.69
179.752
179.813
179.876
179.938
180
180.062
180.124
180.187
180.249
180.312
180.375
180.437
180.5
180.563
180.626
180.689
180.752
180.815
180.878
180.941
181.004
181.067
181.131
181.194
181.257
181.321
181.384
181.448
181.511
181.575
181.638
181.702
181.766
181.829
181.893
181.957
182.02
182.084
182.147
182.211
182.275
182.338
182.402
182.466
182.529
182.593
182.656
182.72
182.783
182.846
182.91
182.973
183.036
183.099
183.162
183.225
183.288
183.351
183.413
183.476
183.538
183.6
183.662
183.724
183.786
183.847
183.909
183.97
184.031
184.091
184.152
184.212
184.272
184.332
184.391
184.45
184.509
184.567
184.625
184.682
184.739
184.796
184.852
184.908
184.963
185.018
185.072
185.126
185.179
185.231
185.283
185.334
185.384
185.433
185.482
185.529
185.576
185.622
185.667
185.711
185.754
185.795
185.836
185.875
185.913
185.949
185.984
186.018
186.05
186.081
186.109
186.136
186.162
186.185
186.206
186.225
186.242
186.257
186.27
186.28
186.287
186.292
186.294
186.293
186.289
186.282
186.272
186.259
186.242
186.221
186.197
186.169
186.137
186.101
186.061
186.017
185.968
185.915
185.856
185.793
185.725
185.652
185.574
185.491
185.402
185.307
185.207
185.102
184.99
184.873
184.75
184.621
184.485
184.344
184.197
184.044
183.884
183.719
183.548
183.371
183.188
183
182.806
182.606
182.401
182.191
181.977
181.757
181.533
181.305
181.073
180.837
180.598
180.356
180.111
179.864
179.615
179.364
179.111
178.858
178.604
178.35
178.096
177.842
177.589
177.338
177.088
176.839
176.593
176.349
176.109
175.871
175.636
175.405
175.178
174.955
174.736
174.521
174.311
174.106
173.905
173.709
173.519
173.333
173.152
172.977
172.806
172.641
172.481
172.326
172.176
172.031
171.891
171.756
171.626
171.5
171.38
171.263
171.152
171.045
170.942
170.843
170.748
170.657
170.57
170.487
170.407
170.331
170.258
170.189
170.122
170.059
169.999
169.941
169.886
169.834
169.784
169.736
169.691
169.648
169.607
169.568
169.531
169.496
169.463
169.431
169.401
169.373
169.346
169.32
169.296
169.273
169.251
169.23
169.211
169.192
169.174
169.158
169.142
169.127
169.113
169.1
169.087
169.075
169.064
169.053
169.043
169.034
169.025
169.017
169.009
169.001
168.994
168.987
168.981
168.975
168.969
168.964
168.959
168.954
168.95
168.946
168.942
168.938
168.935
168.932
168.928
168.926
168.923
168.92
168.918
168.916
168.913
168.911
168.91
168.908
168.906
168.905
168.903
168.902
168.9
168.899
168.898
168.897
168.896
168.895
168.894
168.893
168.893
168.892
168.891
168.89
168.89
168.889
168.889
168.888
168.888
168.887
168.887
168.887
168.886
168.886
168.886
168.885
168.885
168.885
168.885
168.884
168.884
168.884
168.884
168.884
168.883
168.883
168.883
168.883
168.883
168.883
168.883
168.883
168.882
168.882
168.882
168.882
168.882
168.882
168.882
168.882
168.882
168.882
168.882
168.882
168.882
168.882
168.882
168.882
168.882
168.882
168.882
168.882
168.881
168.881
168.881
168.881
168.881
168.881
168.881
168.881
168.881
168.881
168.881
168.881
168.881
168.881
168.881
168.881
168.881
168.881
168.881
168.881
168.881
168.881
168.881
168.881
168.881
168.881
168.881
168.881
168.881
168.881
168.881
168.881
168.881
168.881
168.881
168.881
168.881
168.881
168.881
168.881
168.881
168.881
168.881
)
;

boundaryField
{
    topWall
    {
        type            empty;
    }
    bottomWall
    {
        type            empty;
    }
    leftAndRight_half1
    {
        type            cyclic;
    }
    leftAndRight_half0
    {
        type            cyclic;
    }
    frontAndBack
    {
        type            empty;
    }
}


// ************************************************************************* //
