/*--------------------------------*- C++ -*----------------------------------*\
  =========                 |
  \\      /  F ield         | OpenFOAM: The Open Source CFD Toolbox
   \\    /   O peration     | Website:  https://openfoam.org
    \\  /    A nd           | Version:  9
     \\/     M anipulation  |
\*---------------------------------------------------------------------------*/
FoamFile
{
    format      ascii;
    class       volScalarField;
    location    "0.65";
    object      f_2;
}
// * * * * * * * * * * * * * * * * * * * * * * * * * * * * * * * * * * * * * //

dimensions      [1 -3 0 0 0 0 0];

internalField   nonuniform List<scalar> 
1000
(
164.481
164.481
164.481
164.481
164.481
164.481
164.481
164.481
164.481
164.481
164.481
164.481
164.481
164.481
164.481
164.481
164.481
164.481
164.481
164.481
164.481
164.481
164.481
164.481
164.481
164.481
164.481
164.481
164.481
164.481
164.481
164.481
164.481
164.481
164.481
164.481
164.481
164.481
164.481
164.481
164.481
164.481
164.481
164.481
164.481
164.481
164.481
164.481
164.481
164.481
164.481
164.481
164.481
164.481
164.481
164.481
164.481
164.481
164.481
164.481
164.481
164.481
164.481
164.481
164.481
164.481
164.481
164.481
164.481
164.481
164.481
164.481
164.481
164.481
164.481
164.481
164.481
164.481
164.481
164.481
164.481
164.481
164.481
164.481
164.481
164.481
164.481
164.481
164.481
164.481
164.481
164.481
164.481
164.481
164.481
164.481
164.481
164.481
164.481
164.481
164.481
164.481
164.481
164.481
164.481
164.481
164.481
164.481
164.481
164.481
164.481
164.481
164.481
164.481
164.481
164.481
164.481
164.481
164.481
164.481
164.481
164.481
164.481
164.481
164.481
164.481
164.481
164.481
164.481
164.481
164.481
164.481
164.481
164.481
164.481
164.481
164.481
164.481
164.481
164.481
164.481
164.481
164.481
164.481
164.481
164.481
164.481
164.481
164.481
164.481
164.481
164.481
164.481
164.481
164.481
164.481
164.481
164.48
164.48
164.48
164.48
164.48
164.48
164.48
164.48
164.48
164.48
164.48
164.48
164.48
164.48
164.48
164.48
164.48
164.48
164.479
164.479
164.479
164.479
164.479
164.479
164.479
164.479
164.479
164.479
164.479
164.478
164.478
164.478
164.478
164.478
164.478
164.478
164.477
164.477
164.477
164.477
164.477
164.476
164.476
164.476
164.476
164.475
164.475
164.475
164.475
164.474
164.474
164.474
164.474
164.473
164.473
164.473
164.472
164.472
164.471
164.471
164.471
164.47
164.47
164.469
164.469
164.468
164.468
164.467
164.467
164.466
164.465
164.465
164.464
164.463
164.463
164.462
164.461
164.46
164.46
164.459
164.458
164.457
164.456
164.455
164.454
164.453
164.452
164.451
164.45
164.449
164.447
164.446
164.445
164.444
164.442
164.441
164.439
164.438
164.436
164.435
164.433
164.432
164.43
164.428
164.426
164.424
164.422
164.42
164.418
164.416
164.414
164.412
164.409
164.407
164.405
164.402
164.399
164.397
164.394
164.391
164.388
164.385
164.382
164.379
164.376
164.373
164.369
164.366
164.362
164.359
164.355
164.351
164.347
164.343
164.339
164.335
164.33
164.326
164.321
164.316
164.312
164.307
164.302
164.297
164.291
164.286
164.28
164.275
164.269
164.263
164.257
164.251
164.245
164.238
164.232
164.225
164.218
164.211
164.204
164.197
164.189
164.182
164.174
164.166
164.158
164.15
164.141
164.133
164.124
164.115
164.106
164.097
164.087
164.078
164.068
164.058
164.048
164.038
164.027
164.017
164.006
163.995
163.983
163.972
163.96
163.948
163.936
163.924
163.912
163.899
163.886
163.873
163.86
163.846
163.833
163.819
163.805
163.79
163.776
163.761
163.746
163.731
163.715
163.7
163.684
163.668
163.651
163.635
163.618
163.601
163.584
163.566
163.549
163.531
163.513
163.494
163.476
163.457
163.438
163.418
163.399
163.379
163.359
163.338
163.318
163.297
163.276
163.255
163.233
163.212
163.19
163.167
163.145
163.122
163.099
163.076
163.052
163.029
163.005
162.981
162.956
162.931
162.907
162.881
162.856
162.83
162.804
162.778
162.752
162.725
162.698
162.671
162.644
162.616
162.589
162.561
162.532
162.504
162.475
162.446
162.417
162.387
162.357
162.328
162.297
162.267
162.236
162.205
162.174
162.143
162.111
162.08
162.048
162.015
161.983
161.95
161.917
161.884
161.851
161.817
161.783
161.749
161.715
161.68
161.646
161.611
161.576
161.54
161.505
161.469
161.433
161.397
161.361
161.324
161.287
161.25
161.213
161.176
161.138
161.1
161.062
161.024
160.986
160.947
160.909
160.87
160.831
160.791
160.752
160.712
160.672
160.632
160.592
160.551
160.511
160.47
160.429
160.388
160.347
160.305
160.264
160.222
160.18
160.138
160.095
160.053
160.01
159.968
159.925
159.881
159.838
159.795
159.751
159.707
159.664
159.62
159.575
159.531
159.487
159.442
159.397
159.352
159.307
159.262
159.217
159.171
159.126
159.08
159.034
158.988
158.942
158.896
158.849
158.803
158.756
158.709
158.662
158.615
158.568
158.521
158.473
158.426
158.378
158.331
158.283
158.235
158.187
158.138
158.09
158.042
157.993
157.945
157.896
157.847
157.798
157.749
157.7
157.651
157.601
157.552
157.503
157.453
157.403
157.353
157.304
157.254
157.203
157.153
157.103
157.053
157.002
156.952
156.901
156.851
156.8
156.749
156.698
156.647
156.596
156.545
156.494
156.442
156.391
156.34
156.288
156.237
156.185
156.133
156.082
156.03
155.978
155.926
155.874
155.822
155.77
155.718
155.665
155.613
155.561
155.508
155.456
155.403
155.351
155.298
155.245
155.193
155.14
155.087
155.034
154.981
154.928
154.875
154.822
154.769
154.716
154.663
154.61
154.557
154.504
154.45
154.397
154.344
154.29
154.237
154.183
154.13
154.077
154.023
153.97
153.916
153.863
153.809
153.756
153.702
153.648
153.595
153.541
153.488
153.434
153.38
153.327
153.273
153.22
153.166
153.113
153.059
153.005
152.952
152.898
152.845
152.791
152.738
152.685
152.631
152.578
152.525
152.471
152.418
152.365
152.312
152.259
152.206
152.153
152.1
152.047
151.994
151.942
151.889
151.836
151.784
151.732
151.679
151.627
151.575
151.524
151.472
151.42
151.369
151.317
151.266
151.215
151.164
151.114
151.063
151.013
150.963
150.913
150.864
150.814
150.765
150.716
150.668
150.619
150.571
150.524
150.476
150.429
150.383
150.337
150.291
150.245
150.2
150.156
150.111
150.068
150.025
149.982
149.94
149.899
149.858
149.818
149.778
149.74
149.702
149.664
149.628
149.592
149.557
149.523
149.491
149.459
149.428
149.398
149.369
149.342
149.315
149.29
149.267
149.245
149.224
149.205
149.187
149.171
149.156
149.144
149.133
149.124
149.118
149.113
149.11
149.11
149.112
149.117
149.124
149.133
149.146
149.161
149.179
149.2
149.224
149.252
149.283
149.317
149.355
149.396
149.441
149.49
149.543
149.6
149.662
149.727
149.797
149.872
149.951
150.034
150.123
150.216
150.314
150.417
150.525
150.638
150.757
150.88
151.009
151.142
151.281
151.425
151.574
151.728
151.887
152.051
152.22
152.393
152.571
152.754
152.941
153.131
153.326
153.525
153.726
153.932
154.14
154.351
154.564
154.78
154.997
155.216
155.436
155.658
155.88
156.102
156.324
156.546
156.768
156.989
157.208
157.426
157.642
157.856
158.068
158.278
158.484
158.688
158.888
159.085
159.278
159.468
159.654
159.835
160.013
160.186
160.355
160.52
160.68
160.836
160.987
161.134
161.276
161.414
161.547
161.676
161.8
161.92
162.036
162.148
162.255
162.359
162.458
162.554
162.646
162.734
162.818
162.899
162.977
163.051
163.122
163.19
163.255
163.317
163.376
163.433
163.487
163.538
163.587
163.634
163.678
163.721
163.761
163.799
163.836
163.87
163.903
163.934
163.964
163.992
164.019
164.045
164.069
164.092
164.113
164.134
164.153
164.172
164.189
164.206
164.221
164.236
164.25
164.263
164.276
164.288
164.299
164.309
164.319
164.329
164.338
164.346
164.354
164.361
164.369
164.375
164.381
164.387
164.393
164.398
164.403
164.408
164.412
164.417
164.42
164.424
164.428
164.431
164.434
164.437
164.44
164.442
164.445
164.447
164.449
164.451
164.453
164.455
164.456
164.458
164.459
164.461
164.462
164.463
164.464
164.465
164.466
164.467
164.468
164.469
164.47
164.471
164.471
164.472
164.472
164.473
164.474
164.474
164.475
164.475
164.475
164.476
164.476
164.476
164.477
164.477
164.477
164.478
164.478
164.478
164.478
164.478
164.479
164.479
164.479
164.479
164.479
164.479
164.48
164.48
164.48
164.48
164.48
164.48
164.48
164.48
164.48
164.48
164.48
164.48
164.48
164.481
164.481
164.481
164.481
164.481
164.481
164.481
164.481
164.481
164.481
164.481
164.481
164.481
164.481
164.481
164.481
164.481
164.481
164.481
164.481
164.481
164.481
164.481
164.481
164.481
164.481
164.481
164.481
164.481
164.481
164.481
164.481
164.481
164.481
164.481
164.481
164.481
164.481
164.481
164.481
164.481
164.481
164.481
164.481
164.481
164.481
164.481
164.481
164.481
164.481
164.481
164.481
164.481
164.481
164.481
164.481
164.481
)
;

boundaryField
{
    topWall
    {
        type            empty;
    }
    bottomWall
    {
        type            empty;
    }
    leftAndRight_half1
    {
        type            cyclic;
    }
    leftAndRight_half0
    {
        type            cyclic;
    }
    frontAndBack
    {
        type            empty;
    }
}


// ************************************************************************* //
