/*--------------------------------*- C++ -*----------------------------------*\
  =========                 |
  \\      /  F ield         | OpenFOAM: The Open Source CFD Toolbox
   \\    /   O peration     | Website:  https://openfoam.org
    \\  /    A nd           | Version:  9
     \\/     M anipulation  |
\*---------------------------------------------------------------------------*/
FoamFile
{
    format      ascii;
    class       volScalarField;
    location    "0.65";
    object      p;
}
// * * * * * * * * * * * * * * * * * * * * * * * * * * * * * * * * * * * * * //

dimensions      [1 -1 -2 0 0 0 0];

internalField   nonuniform List<scalar> 
1000
(
100097
100097
100097
100097
100097
100097
100097
100097
100097
100097
100097
100097
100097
100097
100097
100097
100097
100097
100097
100097
100097
100097
100097
100097
100097
100097
100097
100097
100097
100097
100097
100097
100097
100097
100097
100097
100097
100097
100097
100097
100097
100097
100097
100097
100097
100097
100097
100097
100097
100097
100097
100097
100097
100097
100097
100097
100097
100097
100097
100097
100097
100097
100097
100097
100097
100097
100097
100097
100097
100097
100097
100097
100097
100097
100097
100097
100097
100097
100097
100097
100097
100097
100097
100097
100097
100097
100097
100097
100097
100097
100097
100097
100097
100097
100097
100097
100097
100097
100097
100097
100097
100097
100097
100097
100097
100097
100097
100097
100097
100097
100097
100097
100097
100097
100097
100097
100097
100097
100097
100097
100097
100097
100097
100097
100097
100097
100097
100097
100097
100097
100097
100097
100097
100097
100097
100097
100097
100097
100097
100097
100097
100097
100097
100097
100097
100097
100097
100097
100097
100096
100096
100096
100096
100096
100096
100096
100096
100096
100096
100096
100096
100096
100096
100096
100096
100096
100096
100096
100096
100096
100096
100096
100096
100096
100096
100096
100096
100096
100096
100096
100096
100095
100095
100095
100095
100095
100095
100095
100095
100095
100095
100095
100095
100095
100095
100094
100094
100094
100094
100094
100094
100094
100094
100094
100093
100093
100093
100093
100093
100093
100093
100092
100092
100092
100092
100092
100091
100091
100091
100091
100091
100090
100090
100090
100090
100089
100089
100089
100089
100088
100088
100088
100087
100087
100087
100086
100086
100086
100085
100085
100085
100084
100084
100083
100083
100083
100082
100082
100081
100081
100080
100080
100079
100079
100078
100077
100077
100076
100076
100075
100074
100074
100073
100072
100072
100071
100070
100069
100069
100068
100067
100066
100065
100065
100064
100063
100062
100061
100060
100059
100058
100057
100056
100055
100054
100053
100052
100051
100050
100049
100047
100046
100045
100044
100043
100041
100040
100039
100038
100036
100035
100034
100032
100031
100030
100028
100027
100025
100024
100022
100021
100019
100018
100016
100015
100013
100011
100010
100008
100007
100005
100003
100002
100000
99998.3
99996.6
99994.9
99993.2
99991.5
99989.8
99988
99986.3
99984.5
99982.8
99981
99979.2
99977.5
99975.7
99973.9
99972.1
99970.3
99968.6
99966.8
99965
99963.2
99961.4
99959.7
99957.9
99956.1
99954.4
99952.6
99950.9
99949.2
99947.4
99945.7
99944
99942.3
99940.7
99939
99937.4
99935.7
99934.1
99932.5
99931
99929.4
99927.9
99926.4
99924.9
99923.5
99922
99920.6
99919.3
99917.9
99916.6
99915.3
99914.1
99912.9
99911.7
99910.5
99909.4
99908.4
99907.4
99906.4
99905.4
99904.5
99903.7
99902.9
99902.1
99901.4
99900.8
99900.2
99899.6
99899.1
99898.7
99898.3
99898
99897.7
99897.5
99897.3
99897.2
99897.2
99897.3
99897.4
99897.5
99897.8
99898.1
99898.5
99898.9
99899.5
99900.1
99900.8
99901.5
99902.4
99903.3
99904.3
99905.4
99906.5
99907.8
99909.1
99910.5
99912
99913.6
99915.3
99917.1
99919
99920.9
99923
99925.2
99927.4
99929.8
99932.2
99934.8
99937.4
99940.2
99943
99946
99949.1
99952.3
99955.5
99958.9
99962.4
99966.1
99969.8
99973.6
99977.6
99981.7
99985.8
99990.1
99994.6
99999.1
100004
100009
100013
100018
100024
100029
100034
100040
100045
100051
100057
100063
100069
100076
100082
100089
100095
100102
100109
100116
100123
100131
100138
100146
100154
100162
100170
100178
100186
100195
100204
100212
100221
100230
100240
100249
100258
100268
100278
100288
100298
100308
100319
100329
100340
100351
100362
100373
100384
100396
100408
100419
100431
100444
100456
100468
100481
100494
100507
100520
100533
100546
100560
100573
100587
100601
100616
100630
100645
100659
100674
100689
100704
100720
100735
100751
100767
100783
100799
100815
100832
100848
100865
100882
100900
100917
100934
100952
100970
100988
101006
101025
101043
101062
101081
101100
101119
101139
101158
101178
101198
101218
101238
101259
101280
101300
101321
101343
101364
101385
101407
101429
101451
101473
101496
101518
101541
101564
101587
101610
101634
101657
101681
101705
101729
101754
101778
101803
101828
101853
101878
101904
101929
101955
101981
102007
102033
102060
102087
102114
102141
102168
102195
102223
102250
102278
102307
102335
102363
102392
102421
102450
102479
102508
102538
102568
102598
102628
102658
102688
102719
102750
102781
102812
102843
102875
102907
102939
102971
103003
103035
103068
103101
103134
103167
103200
103234
103267
103301
103335
103370
103404
103439
103473
103508
103543
103579
103614
103650
103686
103722
103758
103794
103830
103867
103904
103941
103978
104016
104053
104091
104129
104167
104205
104243
104282
104320
104359
104398
104437
104477
104516
104556
104596
104636
104676
104716
104756
104797
104838
104878
104919
104960
105002
105043
105084
105126
105168
105210
105252
105294
105336
105378
105421
105463
105506
105548
105591
105634
105677
105720
105763
105806
105849
105892
105935
105979
106022
106065
106108
106151
106195
106238
106281
106324
106366
106409
106452
106494
106537
106579
106621
106662
106704
106745
106786
106826
106867
106906
106946
106985
107023
107061
107098
107135
107171
107206
107240
107274
107307
107339
107369
107399
107427
107455
107481
107505
107528
107550
107570
107588
107604
107619
107631
107641
107649
107654
107657
107658
107656
107650
107642
107631
107617
107600
107579
107554
107527
107495
107460
107421
107378
107331
107280
107225
107166
107104
107037
106966
106891
106812
106729
106643
106553
106459
106362
106262
106158
106052
105942
105830
105716
105600
105481
105361
105240
105117
104993
104869
104743
104618
104492
104367
104242
104118
103994
103872
103750
103630
103512
103395
103280
103167
103056
102947
102841
102736
102635
102535
102439
102345
102253
102164
102078
101994
101913
101835
101759
101686
101615
101547
101481
101418
101357
101298
101242
101188
101136
101086
101039
100993
100949
100907
100867
100829
100792
100757
100724
100692
100661
100632
100605
100578
100553
100529
100507
100485
100465
100445
100426
100409
100392
100376
100361
100346
100333
100320
100308
100296
100285
100274
100264
100255
100246
100238
100230
100222
100215
100208
100202
100196
100190
100185
100180
100175
100170
100166
100162
100158
100155
100151
100148
100145
100142
100139
100137
100134
100132
100130
100128
100126
100124
100123
100121
100120
100118
100117
100116
100115
100113
100112
100111
100111
100110
100109
100108
100107
100107
100106
100106
100105
100104
100104
100104
100103
100103
100102
100102
100102
100101
100101
100101
100100
100100
100100
100100
100100
100099
100099
100099
100099
100099
100099
100099
100098
100098
100098
100098
100098
100098
100098
100098
100098
100098
100098
100098
100098
100097
100097
100097
100097
100097
100097
100097
100097
100097
100097
100097
100097
100097
100097
100097
100097
100097
100097
100097
100097
100097
100097
100097
100097
100097
100097
100097
100097
100097
100097
100097
100097
100097
100097
100097
100097
100097
100097
100097
100097
100097
100097
100097
100097
100097
100097
100097
100097
100097
100097
100097
100097
100097
)
;

boundaryField
{
    topWall
    {
        type            empty;
    }
    bottomWall
    {
        type            empty;
    }
    leftAndRight_half1
    {
        type            cyclic;
    }
    leftAndRight_half0
    {
        type            cyclic;
    }
    frontAndBack
    {
        type            empty;
    }
}


// ************************************************************************* //
