/*--------------------------------*- C++ -*----------------------------------*\
  =========                 |
  \\      /  F ield         | OpenFOAM: The Open Source CFD Toolbox
   \\    /   O peration     | Website:  https://openfoam.org
    \\  /    A nd           | Version:  9
     \\/     M anipulation  |
\*---------------------------------------------------------------------------*/
FoamFile
{
    format      ascii;
    class       volVectorField;
    location    "0.65";
    object      U;
}
// * * * * * * * * * * * * * * * * * * * * * * * * * * * * * * * * * * * * * //

dimensions      [0 1 -1 0 0 0 0];

internalField   nonuniform List<vector> 
1000
(
(0.439991 0 0)
(0.439991 0 0)
(0.439991 0 0)
(0.439991 0 0)
(0.43999 0 0)
(0.43999 0 0)
(0.43999 0 0)
(0.43999 0 0)
(0.43999 0 0)
(0.43999 0 0)
(0.43999 0 0)
(0.43999 0 0)
(0.43999 0 0)
(0.43999 0 0)
(0.43999 0 0)
(0.43999 0 0)
(0.43999 0 0)
(0.439989 0 0)
(0.439989 0 0)
(0.439989 0 0)
(0.439989 0 0)
(0.439989 0 0)
(0.439989 0 0)
(0.439989 0 0)
(0.439989 0 0)
(0.439989 0 0)
(0.439989 0 0)
(0.439989 0 0)
(0.439989 0 0)
(0.439989 0 0)
(0.439989 0 0)
(0.439989 0 0)
(0.439989 0 0)
(0.439989 0 0)
(0.439989 0 0)
(0.439989 0 0)
(0.439989 0 0)
(0.439989 0 0)
(0.439989 0 0)
(0.439989 0 0)
(0.439989 0 0)
(0.439989 0 0)
(0.439989 0 0)
(0.439989 0 0)
(0.439989 0 0)
(0.439989 0 0)
(0.439989 0 0)
(0.439989 0 0)
(0.439989 0 0)
(0.439989 0 0)
(0.439989 0 0)
(0.439989 0 0)
(0.439989 0 0)
(0.439989 0 0)
(0.439989 0 0)
(0.439989 0 0)
(0.439989 0 0)
(0.439989 0 0)
(0.439989 0 0)
(0.439989 0 0)
(0.439989 0 0)
(0.439989 0 0)
(0.43999 0 0)
(0.43999 0 0)
(0.43999 0 0)
(0.43999 0 0)
(0.43999 0 0)
(0.43999 0 0)
(0.43999 0 0)
(0.43999 0 0)
(0.43999 0 0)
(0.43999 0 0)
(0.43999 0 0)
(0.43999 0 0)
(0.43999 0 0)
(0.43999 0 0)
(0.43999 0 0)
(0.43999 0 0)
(0.439991 0 0)
(0.439991 0 0)
(0.439991 0 0)
(0.439991 0 0)
(0.439991 0 0)
(0.439991 0 0)
(0.439991 0 0)
(0.439991 0 0)
(0.439992 0 0)
(0.439992 0 0)
(0.439992 0 0)
(0.439992 0 0)
(0.439992 0 0)
(0.439992 0 0)
(0.439993 0 0)
(0.439993 0 0)
(0.439993 0 0)
(0.439993 0 0)
(0.439994 0 0)
(0.439994 0 0)
(0.439994 0 0)
(0.439995 0 0)
(0.439995 0 0)
(0.439995 0 0)
(0.439996 0 0)
(0.439996 0 0)
(0.439996 0 0)
(0.439997 0 0)
(0.439997 0 0)
(0.439998 0 0)
(0.439998 0 0)
(0.439999 0 0)
(0.44 0 0)
(0.44 0 0)
(0.440001 0 0)
(0.440002 0 0)
(0.440002 0 0)
(0.440003 0 0)
(0.440004 0 0)
(0.440005 0 0)
(0.440006 0 0)
(0.440007 0 0)
(0.440008 0 0)
(0.440009 0 0)
(0.44001 0 0)
(0.440011 0 0)
(0.440012 0 0)
(0.440014 0 0)
(0.440015 0 0)
(0.440017 0 0)
(0.440018 0 0)
(0.44002 0 0)
(0.440022 0 0)
(0.440023 0 0)
(0.440025 0 0)
(0.440027 0 0)
(0.440029 0 0)
(0.440032 0 0)
(0.440034 0 0)
(0.440037 0 0)
(0.440039 0 0)
(0.440042 0 0)
(0.440045 0 0)
(0.440048 0 0)
(0.440051 0 0)
(0.440054 0 0)
(0.440058 0 0)
(0.440061 0 0)
(0.440065 0 0)
(0.440069 0 0)
(0.440074 0 0)
(0.440078 0 0)
(0.440083 0 0)
(0.440088 0 0)
(0.440093 0 0)
(0.440098 0 0)
(0.440104 0 0)
(0.44011 0 0)
(0.440116 0 0)
(0.440123 0 0)
(0.440129 0 0)
(0.440137 0 0)
(0.440144 0 0)
(0.440152 0 0)
(0.44016 0 0)
(0.440169 0 0)
(0.440178 0 0)
(0.440188 0 0)
(0.440198 0 0)
(0.440208 0 0)
(0.440219 0 0)
(0.44023 0 0)
(0.440242 0 0)
(0.440255 0 0)
(0.440268 0 0)
(0.440281 0 0)
(0.440295 0 0)
(0.44031 0 0)
(0.440326 0 0)
(0.440342 0 0)
(0.440359 0 0)
(0.440377 0 0)
(0.440395 0 0)
(0.440415 0 0)
(0.440435 0 0)
(0.440456 0 0)
(0.440478 0 0)
(0.440501 0 0)
(0.440525 0 0)
(0.44055 0 0)
(0.440576 0 0)
(0.440603 0 0)
(0.440632 0 0)
(0.440661 0 0)
(0.440692 0 0)
(0.440724 0 0)
(0.440758 0 0)
(0.440792 0 0)
(0.440829 0 0)
(0.440867 0 0)
(0.440906 0 0)
(0.440947 0 0)
(0.44099 0 0)
(0.441034 0 0)
(0.44108 0 0)
(0.441128 0 0)
(0.441178 0 0)
(0.44123 0 0)
(0.441284 0 0)
(0.441341 0 0)
(0.441399 0 0)
(0.44146 0 0)
(0.441523 0 0)
(0.441588 0 0)
(0.441657 0 0)
(0.441727 0 0)
(0.441801 0 0)
(0.441877 0 0)
(0.441956 0 0)
(0.442039 0 0)
(0.442124 0 0)
(0.442213 0 0)
(0.442305 0 0)
(0.4424 0 0)
(0.442499 0 0)
(0.442601 0 0)
(0.442707 0 0)
(0.442818 0 0)
(0.442932 0 0)
(0.44305 0 0)
(0.443173 0 0)
(0.4433 0 0)
(0.443431 0 0)
(0.443567 0 0)
(0.443708 0 0)
(0.443854 0 0)
(0.444005 0 0)
(0.444162 0 0)
(0.444323 0 0)
(0.444491 0 0)
(0.444664 0 0)
(0.444843 0 0)
(0.445028 0 0)
(0.445219 0 0)
(0.445417 0 0)
(0.445621 0 0)
(0.445833 0 0)
(0.446051 0 0)
(0.446276 0 0)
(0.446509 0 0)
(0.446749 0 0)
(0.446997 0 0)
(0.447253 0 0)
(0.447518 0 0)
(0.447791 0 0)
(0.448072 0 0)
(0.448362 0 0)
(0.448662 0 0)
(0.44897 0 0)
(0.449289 0 0)
(0.449617 0 0)
(0.449955 0 0)
(0.450304 0 0)
(0.450663 0 0)
(0.451033 0 0)
(0.451414 0 0)
(0.451806 0 0)
(0.45221 0 0)
(0.452626 0 0)
(0.453054 0 0)
(0.453495 0 0)
(0.453948 0 0)
(0.454414 0 0)
(0.454894 0 0)
(0.455388 0 0)
(0.455895 0 0)
(0.456417 0 0)
(0.456953 0 0)
(0.457504 0 0)
(0.45807 0 0)
(0.458652 0 0)
(0.459249 0 0)
(0.459863 0 0)
(0.460494 0 0)
(0.461141 0 0)
(0.461805 0 0)
(0.462487 0 0)
(0.463187 0 0)
(0.463905 0 0)
(0.464642 0 0)
(0.465397 0 0)
(0.466172 0 0)
(0.466967 0 0)
(0.467781 0 0)
(0.468617 0 0)
(0.469472 0 0)
(0.470349 0 0)
(0.471248 0 0)
(0.472168 0 0)
(0.473111 0 0)
(0.474077 0 0)
(0.475065 0 0)
(0.476077 0 0)
(0.477113 0 0)
(0.478173 0 0)
(0.479258 0 0)
(0.480367 0 0)
(0.481503 0 0)
(0.482664 0 0)
(0.483851 0 0)
(0.485065 0 0)
(0.486306 0 0)
(0.487574 0 0)
(0.48887 0 0)
(0.490194 0 0)
(0.491547 0 0)
(0.492929 0 0)
(0.494341 0 0)
(0.495782 0 0)
(0.497254 0 0)
(0.498756 0 0)
(0.500289 0 0)
(0.501854 0 0)
(0.503451 0 0)
(0.505079 0 0)
(0.506741 0 0)
(0.508435 0 0)
(0.510163 0 0)
(0.511925 0 0)
(0.513721 0 0)
(0.515552 0 0)
(0.517418 0 0)
(0.519319 0 0)
(0.521256 0 0)
(0.523229 0 0)
(0.525239 0 0)
(0.527285 0 0)
(0.529369 0 0)
(0.531491 0 0)
(0.53365 0 0)
(0.535848 0 0)
(0.538085 0 0)
(0.540361 0 0)
(0.542677 0 0)
(0.545032 0 0)
(0.547427 0 0)
(0.549863 0 0)
(0.55234 0 0)
(0.554858 0 0)
(0.557417 0 0)
(0.560019 0 0)
(0.562662 0 0)
(0.565348 0 0)
(0.568077 0 0)
(0.570849 0 0)
(0.573664 0 0)
(0.576523 0 0)
(0.579426 0 0)
(0.582373 0 0)
(0.585365 0 0)
(0.588402 0 0)
(0.591483 0 0)
(0.59461 0 0)
(0.597783 0 0)
(0.601001 0 0)
(0.604266 0 0)
(0.607577 0 0)
(0.610934 0 0)
(0.614338 0 0)
(0.61779 0 0)
(0.621288 0 0)
(0.624834 0 0)
(0.628427 0 0)
(0.632069 0 0)
(0.635758 0 0)
(0.639496 0 0)
(0.643282 0 0)
(0.647116 0 0)
(0.650999 0 0)
(0.654931 0 0)
(0.658912 0 0)
(0.662942 0 0)
(0.667021 0 0)
(0.67115 0 0)
(0.675328 0 0)
(0.679556 0 0)
(0.683834 0 0)
(0.688161 0 0)
(0.692538 0 0)
(0.696966 0 0)
(0.701443 0 0)
(0.705971 0 0)
(0.710549 0 0)
(0.715177 0 0)
(0.719855 0 0)
(0.724584 0 0)
(0.729364 0 0)
(0.734194 0 0)
(0.739074 0 0)
(0.744005 0 0)
(0.748986 0 0)
(0.754018 0 0)
(0.759101 0 0)
(0.764234 0 0)
(0.769418 0 0)
(0.774652 0 0)
(0.779936 0 0)
(0.785272 0 0)
(0.790657 0 0)
(0.796093 0 0)
(0.80158 0 0)
(0.807116 0 0)
(0.812703 0 0)
(0.818341 0 0)
(0.824028 0 0)
(0.829765 0 0)
(0.835553 0 0)
(0.84139 0 0)
(0.847277 0 0)
(0.853214 0 0)
(0.8592 0 0)
(0.865236 0 0)
(0.871321 0 0)
(0.877456 0 0)
(0.88364 0 0)
(0.889872 0 0)
(0.896154 0 0)
(0.902485 0 0)
(0.908864 0 0)
(0.915292 0 0)
(0.921768 0 0)
(0.928292 0 0)
(0.934865 0 0)
(0.941485 0 0)
(0.948153 0 0)
(0.954869 0 0)
(0.961632 0 0)
(0.968443 0 0)
(0.975301 0 0)
(0.982205 0 0)
(0.989156 0 0)
(0.996154 0 0)
(1.0032 0 0)
(1.01029 0 0)
(1.01743 0 0)
(1.02461 0 0)
(1.03183 0 0)
(1.03911 0 0)
(1.04643 0 0)
(1.05379 0 0)
(1.0612 0 0)
(1.06865 0 0)
(1.07615 0 0)
(1.08369 0 0)
(1.09127 0 0)
(1.0989 0 0)
(1.10657 0 0)
(1.11429 0 0)
(1.12205 0 0)
(1.12985 0 0)
(1.13769 0 0)
(1.14558 0 0)
(1.15351 0 0)
(1.16148 0 0)
(1.16949 0 0)
(1.17754 0 0)
(1.18564 0 0)
(1.19377 0 0)
(1.20195 0 0)
(1.21017 0 0)
(1.21842 0 0)
(1.22672 0 0)
(1.23506 0 0)
(1.24343 0 0)
(1.25185 0 0)
(1.2603 0 0)
(1.2688 0 0)
(1.27733 0 0)
(1.2859 0 0)
(1.29451 0 0)
(1.30315 0 0)
(1.31183 0 0)
(1.32056 0 0)
(1.32931 0 0)
(1.33811 0 0)
(1.34694 0 0)
(1.35581 0 0)
(1.36471 0 0)
(1.37365 0 0)
(1.38262 0 0)
(1.39163 0 0)
(1.40068 0 0)
(1.40976 0 0)
(1.41887 0 0)
(1.42802 0 0)
(1.4372 0 0)
(1.44642 0 0)
(1.45567 0 0)
(1.46495 0 0)
(1.47427 0 0)
(1.48362 0 0)
(1.493 0 0)
(1.50241 0 0)
(1.51186 0 0)
(1.52134 0 0)
(1.53085 0 0)
(1.54039 0 0)
(1.54996 0 0)
(1.55957 0 0)
(1.5692 0 0)
(1.57886 0 0)
(1.58856 0 0)
(1.59828 0 0)
(1.60804 0 0)
(1.61782 0 0)
(1.62763 0 0)
(1.63747 0 0)
(1.64735 0 0)
(1.65724 0 0)
(1.66717 0 0)
(1.67713 0 0)
(1.68711 0 0)
(1.69712 0 0)
(1.70716 0 0)
(1.71723 0 0)
(1.72732 0 0)
(1.73744 0 0)
(1.74758 0 0)
(1.75775 0 0)
(1.76795 0 0)
(1.77817 0 0)
(1.78842 0 0)
(1.7987 0 0)
(1.809 0 0)
(1.81932 0 0)
(1.82967 0 0)
(1.84004 0 0)
(1.85044 0 0)
(1.86086 0 0)
(1.87131 0 0)
(1.88178 0 0)
(1.89227 0 0)
(1.90279 0 0)
(1.91333 0 0)
(1.92389 0 0)
(1.93447 0 0)
(1.94508 0 0)
(1.95571 0 0)
(1.96636 0 0)
(1.97703 0 0)
(1.98772 0 0)
(1.99844 0 0)
(2.00917 0 0)
(2.01993 0 0)
(2.03071 0 0)
(2.0415 0 0)
(2.05232 0 0)
(2.06316 0 0)
(2.07402 0 0)
(2.0849 0 0)
(2.09579 0 0)
(2.10671 0 0)
(2.11764 0 0)
(2.1286 0 0)
(2.13957 0 0)
(2.15056 0 0)
(2.16157 0 0)
(2.1726 0 0)
(2.18364 0 0)
(2.1947 0 0)
(2.20578 0 0)
(2.21688 0 0)
(2.22799 0 0)
(2.23912 0 0)
(2.25027 0 0)
(2.26143 0 0)
(2.27261 0 0)
(2.28381 0 0)
(2.29502 0 0)
(2.30625 0 0)
(2.31749 0 0)
(2.32874 0 0)
(2.34002 0 0)
(2.3513 0 0)
(2.3626 0 0)
(2.37392 0 0)
(2.38525 0 0)
(2.39659 0 0)
(2.40794 0 0)
(2.41931 0 0)
(2.4307 0 0)
(2.44209 0 0)
(2.4535 0 0)
(2.46492 0 0)
(2.47635 0 0)
(2.48779 0 0)
(2.49925 0 0)
(2.51072 0 0)
(2.52219 0 0)
(2.53368 0 0)
(2.54518 0 0)
(2.55669 0 0)
(2.56821 0 0)
(2.57974 0 0)
(2.59128 0 0)
(2.60283 0 0)
(2.61439 0 0)
(2.62595 0 0)
(2.63753 0 0)
(2.64911 0 0)
(2.6607 0 0)
(2.67229 0 0)
(2.6839 0 0)
(2.69551 0 0)
(2.70713 0 0)
(2.71875 0 0)
(2.73038 0 0)
(2.74201 0 0)
(2.75365 0 0)
(2.76529 0 0)
(2.77694 0 0)
(2.78859 0 0)
(2.80025 0 0)
(2.8119 0 0)
(2.82356 0 0)
(2.83522 0 0)
(2.84689 0 0)
(2.85855 0 0)
(2.87021 0 0)
(2.88188 0 0)
(2.89354 0 0)
(2.9052 0 0)
(2.91686 0 0)
(2.92851 0 0)
(2.94017 0 0)
(2.95182 0 0)
(2.96346 0 0)
(2.9751 0 0)
(2.98674 0 0)
(2.99836 0 0)
(3.00998 0 0)
(3.02159 0 0)
(3.0332 0 0)
(3.04479 0 0)
(3.05637 0 0)
(3.06794 0 0)
(3.0795 0 0)
(3.09104 0 0)
(3.10257 0 0)
(3.11408 0 0)
(3.12557 0 0)
(3.13705 0 0)
(3.14851 0 0)
(3.15994 0 0)
(3.17136 0 0)
(3.18275 0 0)
(3.19411 0 0)
(3.20545 0 0)
(3.21676 0 0)
(3.22804 0 0)
(3.23929 0 0)
(3.2505 0 0)
(3.26168 0 0)
(3.27283 0 0)
(3.28393 0 0)
(3.29499 0 0)
(3.30601 0 0)
(3.31698 0 0)
(3.32791 0 0)
(3.33878 0 0)
(3.3496 0 0)
(3.36037 0 0)
(3.37107 0 0)
(3.38171 0 0)
(3.39229 0 0)
(3.4028 0 0)
(3.41324 0 0)
(3.4236 0 0)
(3.43388 0 0)
(3.44408 0 0)
(3.4542 0 0)
(3.46422 0 0)
(3.47415 0 0)
(3.48397 0 0)
(3.49369 0 0)
(3.50331 0 0)
(3.5128 0 0)
(3.52218 0 0)
(3.53143 0 0)
(3.54054 0 0)
(3.54952 0 0)
(3.55836 0 0)
(3.56704 0 0)
(3.57556 0 0)
(3.58392 0 0)
(3.59211 0 0)
(3.60011 0 0)
(3.60792 0 0)
(3.61554 0 0)
(3.62294 0 0)
(3.63014 0 0)
(3.6371 0 0)
(3.64383 0 0)
(3.65031 0 0)
(3.65653 0 0)
(3.66248 0 0)
(3.66816 0 0)
(3.67353 0 0)
(3.67861 0 0)
(3.68336 0 0)
(3.68778 0 0)
(3.69185 0 0)
(3.69556 0 0)
(3.69889 0 0)
(3.70183 0 0)
(3.70436 0 0)
(3.70647 0 0)
(3.70813 0 0)
(3.70933 0 0)
(3.71005 0 0)
(3.71028 0 0)
(3.70998 0 0)
(3.70915 0 0)
(3.70776 0 0)
(3.7058 0 0)
(3.70323 0 0)
(3.70004 0 0)
(3.69621 0 0)
(3.69171 0 0)
(3.68653 0 0)
(3.68063 0 0)
(3.674 0 0)
(3.66661 0 0)
(3.65844 0 0)
(3.64947 0 0)
(3.63967 0 0)
(3.62901 0 0)
(3.61748 0 0)
(3.60506 0 0)
(3.59171 0 0)
(3.57742 0 0)
(3.56217 0 0)
(3.54594 0 0)
(3.52871 0 0)
(3.51045 0 0)
(3.49116 0 0)
(3.47081 0 0)
(3.4494 0 0)
(3.4269 0 0)
(3.40331 0 0)
(3.37863 0 0)
(3.35283 0 0)
(3.32593 0 0)
(3.29791 0 0)
(3.26878 0 0)
(3.23854 0 0)
(3.2072 0 0)
(3.17477 0 0)
(3.14126 0 0)
(3.10669 0 0)
(3.07107 0 0)
(3.03443 0 0)
(2.9968 0 0)
(2.9582 0 0)
(2.91867 0 0)
(2.87824 0 0)
(2.83696 0 0)
(2.79487 0 0)
(2.75201 0 0)
(2.70844 0 0)
(2.6642 0 0)
(2.61936 0 0)
(2.57397 0 0)
(2.52808 0 0)
(2.48177 0 0)
(2.4351 0 0)
(2.38812 0 0)
(2.34092 0 0)
(2.29355 0 0)
(2.24607 0 0)
(2.19857 0 0)
(2.15111 0 0)
(2.10375 0 0)
(2.05655 0 0)
(2.0096 0 0)
(1.96293 0 0)
(1.91663 0 0)
(1.87074 0 0)
(1.82533 0 0)
(1.78044 0 0)
(1.73613 0 0)
(1.69245 0 0)
(1.64945 0 0)
(1.60716 0 0)
(1.56562 0 0)
(1.52487 0 0)
(1.48494 0 0)
(1.44587 0 0)
(1.40766 0 0)
(1.37036 0 0)
(1.33397 0 0)
(1.29851 0 0)
(1.26399 0 0)
(1.23043 0 0)
(1.19782 0 0)
(1.16617 0 0)
(1.13549 0 0)
(1.10576 0 0)
(1.07698 0 0)
(1.04916 0 0)
(1.02227 0 0)
(0.996316 0 0)
(0.971275 0 0)
(0.947138 0 0)
(0.923889 0 0)
(0.901511 0 0)
(0.879987 0 0)
(0.859299 0 0)
(0.839427 0 0)
(0.820352 0 0)
(0.802053 0 0)
(0.784509 0 0)
(0.767699 0 0)
(0.751601 0 0)
(0.736193 0 0)
(0.721455 0 0)
(0.707363 0 0)
(0.693897 0 0)
(0.681036 0 0)
(0.668756 0 0)
(0.657039 0 0)
(0.645862 0 0)
(0.635207 0 0)
(0.625051 0 0)
(0.615377 0 0)
(0.606165 0 0)
(0.597396 0 0)
(0.589051 0 0)
(0.581115 0 0)
(0.573568 0 0)
(0.566394 0 0)
(0.559578 0 0)
(0.553103 0 0)
(0.546955 0 0)
(0.541118 0 0)
(0.535579 0 0)
(0.530323 0 0)
(0.525339 0 0)
(0.520613 0 0)
(0.516132 0 0)
(0.511887 0 0)
(0.507864 0 0)
(0.504053 0 0)
(0.500445 0 0)
(0.497029 0 0)
(0.493796 0 0)
(0.490737 0 0)
(0.487842 0 0)
(0.485105 0 0)
(0.482516 0 0)
(0.480068 0 0)
(0.477755 0 0)
(0.475569 0 0)
(0.473504 0 0)
(0.471553 0 0)
(0.46971 0 0)
(0.46797 0 0)
(0.466328 0 0)
(0.464778 0 0)
(0.463315 0 0)
(0.461935 0 0)
(0.460633 0 0)
(0.459405 0 0)
(0.458247 0 0)
(0.457156 0 0)
(0.456127 0 0)
(0.455157 0 0)
(0.454243 0 0)
(0.453383 0 0)
(0.452572 0 0)
(0.451808 0 0)
(0.45109 0 0)
(0.450413 0 0)
(0.449776 0 0)
(0.449176 0 0)
(0.448612 0 0)
(0.448081 0 0)
(0.447582 0 0)
(0.447112 0 0)
(0.446671 0 0)
(0.446256 0 0)
(0.445866 0 0)
(0.445499 0 0)
(0.445154 0 0)
(0.444831 0 0)
(0.444526 0 0)
(0.444241 0 0)
(0.443973 0 0)
(0.443721 0 0)
(0.443484 0 0)
(0.443262 0 0)
(0.443054 0 0)
(0.442858 0 0)
(0.442675 0 0)
(0.442503 0 0)
(0.442342 0 0)
(0.44219 0 0)
(0.442048 0 0)
(0.441915 0 0)
(0.441791 0 0)
(0.441674 0 0)
(0.441564 0 0)
(0.441462 0 0)
(0.441366 0 0)
(0.441276 0 0)
(0.441191 0 0)
(0.441112 0 0)
(0.441038 0 0)
(0.440969 0 0)
(0.440905 0 0)
(0.440844 0 0)
(0.440787 0 0)
(0.440734 0 0)
(0.440685 0 0)
(0.440638 0 0)
(0.440595 0 0)
(0.440554 0 0)
(0.440516 0 0)
(0.440481 0 0)
(0.440448 0 0)
(0.440417 0 0)
(0.440388 0 0)
(0.440361 0 0)
(0.440336 0 0)
(0.440312 0 0)
(0.44029 0 0)
(0.44027 0 0)
(0.44025 0 0)
(0.440233 0 0)
(0.440216 0 0)
(0.4402 0 0)
(0.440186 0 0)
(0.440172 0 0)
(0.440159 0 0)
(0.440148 0 0)
(0.440137 0 0)
(0.440126 0 0)
(0.440117 0 0)
(0.440108 0 0)
(0.4401 0 0)
(0.440092 0 0)
(0.440085 0 0)
(0.440078 0 0)
(0.440072 0 0)
(0.440066 0 0)
(0.44006 0 0)
(0.440055 0 0)
(0.440051 0 0)
(0.440046 0 0)
(0.440042 0 0)
(0.440038 0 0)
(0.440035 0 0)
(0.440032 0 0)
(0.440029 0 0)
(0.440026 0 0)
(0.440023 0 0)
(0.440021 0 0)
(0.440018 0 0)
(0.440016 0 0)
(0.440014 0 0)
(0.440012 0 0)
(0.440011 0 0)
(0.440009 0 0)
(0.440008 0 0)
(0.440006 0 0)
(0.440005 0 0)
(0.440004 0 0)
(0.440003 0 0)
(0.440002 0 0)
(0.440001 0 0)
(0.44 0 0)
(0.439999 0 0)
(0.439998 0 0)
(0.439998 0 0)
(0.439997 0 0)
(0.439996 0 0)
(0.439996 0 0)
(0.439995 0 0)
(0.439995 0 0)
(0.439994 0 0)
(0.439994 0 0)
(0.439994 0 0)
(0.439993 0 0)
(0.439993 0 0)
(0.439993 0 0)
(0.439992 0 0)
(0.439992 0 0)
(0.439992 0 0)
(0.439992 0 0)
(0.439991 0 0)
(0.439991 0 0)
(0.439991 0 0)
)
;

boundaryField
{
    topWall
    {
        type            empty;
    }
    bottomWall
    {
        type            empty;
    }
    leftAndRight_half1
    {
        type            cyclic;
    }
    leftAndRight_half0
    {
        type            cyclic;
    }
    frontAndBack
    {
        type            empty;
    }
}


// ************************************************************************* //
