/*--------------------------------*- C++ -*----------------------------------*\
  =========                 |
  \\      /  F ield         | OpenFOAM: The Open Source CFD Toolbox
   \\    /   O peration     | Website:  https://openfoam.org
    \\  /    A nd           | Version:  9
     \\/     M anipulation  |
\*---------------------------------------------------------------------------*/
FoamFile
{
    format      ascii;
    class       volVectorField;
    location    "1.05";
    object      U;
}
// * * * * * * * * * * * * * * * * * * * * * * * * * * * * * * * * * * * * * //

dimensions      [0 1 -1 0 0 0 0];

internalField   nonuniform List<vector> 
1000
(
(0.131741 0 0)
(0.131734 0 0)
(0.131742 0 0)
(0.131733 0 0)
(0.131742 0 0)
(0.131732 0 0)
(0.131743 0 0)
(0.13173 0 0)
(0.131744 0 0)
(0.131729 0 0)
(0.131745 0 0)
(0.131727 0 0)
(0.131747 0 0)
(0.131725 0 0)
(0.131748 0 0)
(0.131722 0 0)
(0.131749 0 0)
(0.131719 0 0)
(0.131751 0 0)
(0.131716 0 0)
(0.131753 0 0)
(0.131712 0 0)
(0.131755 0 0)
(0.131708 0 0)
(0.131756 0 0)
(0.131703 0 0)
(0.131758 0 0)
(0.131698 0 0)
(0.13176 0 0)
(0.131692 0 0)
(0.131762 0 0)
(0.131685 0 0)
(0.131764 0 0)
(0.131677 0 0)
(0.131765 0 0)
(0.131669 0 0)
(0.131766 0 0)
(0.13166 0 0)
(0.131767 0 0)
(0.131651 0 0)
(0.131768 0 0)
(0.13164 0 0)
(0.131767 0 0)
(0.131629 0 0)
(0.131767 0 0)
(0.131617 0 0)
(0.131765 0 0)
(0.131605 0 0)
(0.131762 0 0)
(0.131592 0 0)
(0.131759 0 0)
(0.131578 0 0)
(0.131754 0 0)
(0.131564 0 0)
(0.131749 0 0)
(0.131549 0 0)
(0.131742 0 0)
(0.131534 0 0)
(0.131734 0 0)
(0.131519 0 0)
(0.131725 0 0)
(0.131505 0 0)
(0.131715 0 0)
(0.13149 0 0)
(0.131704 0 0)
(0.131476 0 0)
(0.131693 0 0)
(0.131463 0 0)
(0.13168 0 0)
(0.131451 0 0)
(0.131668 0 0)
(0.13144 0 0)
(0.131655 0 0)
(0.131431 0 0)
(0.131643 0 0)
(0.131424 0 0)
(0.131632 0 0)
(0.13142 0 0)
(0.131621 0 0)
(0.131418 0 0)
(0.131613 0 0)
(0.13142 0 0)
(0.131607 0 0)
(0.131424 0 0)
(0.131606 0 0)
(0.13143 0 0)
(0.131612 0 0)
(0.131434 0 0)
(0.131632 0 0)
(0.131431 0 0)
(0.131674 0 0)
(0.131415 0 0)
(0.131743 0 0)
(0.131396 0 0)
(0.131826 0 0)
(0.131413 0 0)
(0.131888 0 0)
(0.131517 0 0)
(0.131921 0 0)
(0.131701 0 0)
(0.131983 0 0)
(0.131891 0 0)
(0.132097 0 0)
(0.132058 0 0)
(0.13223 0 0)
(0.132203 0 0)
(0.132351 0 0)
(0.132327 0 0)
(0.132452 0 0)
(0.132431 0 0)
(0.132535 0 0)
(0.13252 0 0)
(0.132608 0 0)
(0.132602 0 0)
(0.132678 0 0)
(0.132682 0 0)
(0.132749 0 0)
(0.132763 0 0)
(0.132822 0 0)
(0.132847 0 0)
(0.1329 0 0)
(0.132933 0 0)
(0.132982 0 0)
(0.133023 0 0)
(0.133066 0 0)
(0.133114 0 0)
(0.133154 0 0)
(0.133207 0 0)
(0.133244 0 0)
(0.133301 0 0)
(0.133335 0 0)
(0.133395 0 0)
(0.133427 0 0)
(0.133489 0 0)
(0.13352 0 0)
(0.133583 0 0)
(0.133611 0 0)
(0.133675 0 0)
(0.133702 0 0)
(0.133765 0 0)
(0.133791 0 0)
(0.133853 0 0)
(0.133878 0 0)
(0.133939 0 0)
(0.133962 0 0)
(0.134022 0 0)
(0.134044 0 0)
(0.134101 0 0)
(0.134122 0 0)
(0.134177 0 0)
(0.134197 0 0)
(0.13425 0 0)
(0.134269 0 0)
(0.134319 0 0)
(0.134336 0 0)
(0.134384 0 0)
(0.1344 0 0)
(0.134445 0 0)
(0.134461 0 0)
(0.134503 0 0)
(0.134517 0 0)
(0.134557 0 0)
(0.13457 0 0)
(0.134607 0 0)
(0.13462 0 0)
(0.134654 0 0)
(0.134665 0 0)
(0.134698 0 0)
(0.134708 0 0)
(0.134738 0 0)
(0.134747 0 0)
(0.134775 0 0)
(0.134783 0 0)
(0.134808 0 0)
(0.134815 0 0)
(0.134839 0 0)
(0.134845 0 0)
(0.134866 0 0)
(0.13487 0 0)
(0.134889 0 0)
(0.134893 0 0)
(0.13491 0 0)
(0.134912 0 0)
(0.134926 0 0)
(0.134926 0 0)
(0.13494 0 0)
(0.134937 0 0)
(0.134949 0 0)
(0.134943 0 0)
(0.134955 0 0)
(0.134944 0 0)
(0.134955 0 0)
(0.134941 0 0)
(0.13495 0 0)
(0.134935 0 0)
(0.134939 0 0)
(0.134925 0 0)
(0.134924 0 0)
(0.134912 0 0)
(0.134911 0 0)
(0.134901 0 0)
(0.134899 0 0)
(0.134885 0 0)
(0.134865 0 0)
(0.134816 0 0)
(0.134746 0 0)
(0.134644 0 0)
(0.134535 0 0)
(0.13442 0 0)
(0.134321 0 0)
(0.134233 0 0)
(0.134166 0 0)
(0.134109 0 0)
(0.134066 0 0)
(0.134026 0 0)
(0.133993 0 0)
(0.133959 0 0)
(0.133928 0 0)
(0.133894 0 0)
(0.133862 0 0)
(0.133827 0 0)
(0.133792 0 0)
(0.133755 0 0)
(0.133718 0 0)
(0.133679 0 0)
(0.13364 0 0)
(0.133599 0 0)
(0.133558 0 0)
(0.133516 0 0)
(0.133473 0 0)
(0.13343 0 0)
(0.133386 0 0)
(0.133341 0 0)
(0.133297 0 0)
(0.133252 0 0)
(0.133206 0 0)
(0.133161 0 0)
(0.133116 0 0)
(0.133071 0 0)
(0.133026 0 0)
(0.132981 0 0)
(0.132936 0 0)
(0.132892 0 0)
(0.132848 0 0)
(0.132805 0 0)
(0.132762 0 0)
(0.13272 0 0)
(0.132678 0 0)
(0.132638 0 0)
(0.132598 0 0)
(0.132559 0 0)
(0.132521 0 0)
(0.132483 0 0)
(0.132447 0 0)
(0.132412 0 0)
(0.132377 0 0)
(0.132344 0 0)
(0.132312 0 0)
(0.132281 0 0)
(0.132251 0 0)
(0.132222 0 0)
(0.132194 0 0)
(0.132167 0 0)
(0.132141 0 0)
(0.132117 0 0)
(0.132093 0 0)
(0.132071 0 0)
(0.132049 0 0)
(0.132029 0 0)
(0.132009 0 0)
(0.131991 0 0)
(0.131973 0 0)
(0.131957 0 0)
(0.131941 0 0)
(0.131927 0 0)
(0.131913 0 0)
(0.1319 0 0)
(0.131887 0 0)
(0.131876 0 0)
(0.131865 0 0)
(0.131855 0 0)
(0.131845 0 0)
(0.131836 0 0)
(0.131828 0 0)
(0.131821 0 0)
(0.131814 0 0)
(0.131807 0 0)
(0.131801 0 0)
(0.131795 0 0)
(0.13179 0 0)
(0.131785 0 0)
(0.131781 0 0)
(0.131777 0 0)
(0.131773 0 0)
(0.13177 0 0)
(0.131767 0 0)
(0.131764 0 0)
(0.131761 0 0)
(0.131759 0 0)
(0.131757 0 0)
(0.131755 0 0)
(0.131753 0 0)
(0.131751 0 0)
(0.13175 0 0)
(0.131749 0 0)
(0.131747 0 0)
(0.131746 0 0)
(0.131745 0 0)
(0.131745 0 0)
(0.131744 0 0)
(0.131743 0 0)
(0.131743 0 0)
(0.131742 0 0)
(0.131742 0 0)
(0.131741 0 0)
(0.131741 0 0)
(0.13174 0 0)
(0.13174 0 0)
(0.13174 0 0)
(0.13174 0 0)
(0.131739 0 0)
(0.131739 0 0)
(0.131739 0 0)
(0.131739 0 0)
(0.131739 0 0)
(0.131739 0 0)
(0.131739 0 0)
(0.131738 0 0)
(0.131738 0 0)
(0.131738 0 0)
(0.131738 0 0)
(0.131738 0 0)
(0.131738 0 0)
(0.131738 0 0)
(0.131738 0 0)
(0.131738 0 0)
(0.131738 0 0)
(0.131738 0 0)
(0.131738 0 0)
(0.131738 0 0)
(0.131738 0 0)
(0.131738 0 0)
(0.131738 0 0)
(0.131738 0 0)
(0.131738 0 0)
(0.131738 0 0)
(0.131738 0 0)
(0.131738 0 0)
(0.131738 0 0)
(0.131738 0 0)
(0.131738 0 0)
(0.131738 0 0)
(0.131738 0 0)
(0.131738 0 0)
(0.131738 0 0)
(0.131738 0 0)
(0.131738 0 0)
(0.131738 0 0)
(0.131738 0 0)
(0.131738 0 0)
(0.131738 0 0)
(0.131738 0 0)
(0.131738 0 0)
(0.131738 0 0)
(0.131738 0 0)
(0.131738 0 0)
(0.131738 0 0)
(0.131738 0 0)
(0.131738 0 0)
(0.131738 0 0)
(0.131738 0 0)
(0.131738 0 0)
(0.131738 0 0)
(0.131738 0 0)
(0.131738 0 0)
(0.131738 0 0)
(0.131738 0 0)
(0.131738 0 0)
(0.131738 0 0)
(0.131738 0 0)
(0.131738 0 0)
(0.131738 0 0)
(0.131738 0 0)
(0.131738 0 0)
(0.131738 0 0)
(0.131738 0 0)
(0.131738 0 0)
(0.131738 0 0)
(0.131738 0 0)
(0.131738 0 0)
(0.131738 0 0)
(0.131738 0 0)
(0.131738 0 0)
(0.131738 0 0)
(0.131738 0 0)
(0.131738 0 0)
(0.131738 0 0)
(0.131738 0 0)
(0.131738 0 0)
(0.131738 0 0)
(0.131738 0 0)
(0.131738 0 0)
(0.131738 0 0)
(0.131738 0 0)
(0.131738 0 0)
(0.131738 0 0)
(0.131738 0 0)
(0.131738 0 0)
(0.131738 0 0)
(0.131738 0 0)
(0.131738 0 0)
(0.131738 0 0)
(0.131738 0 0)
(0.131738 0 0)
(0.131738 0 0)
(0.131738 0 0)
(0.131738 0 0)
(0.131738 0 0)
(0.131738 0 0)
(0.131738 0 0)
(0.131738 0 0)
(0.131738 0 0)
(0.131738 0 0)
(0.131738 0 0)
(0.131738 0 0)
(0.131738 0 0)
(0.131738 0 0)
(0.131738 0 0)
(0.131738 0 0)
(0.131738 0 0)
(0.131738 0 0)
(0.131738 0 0)
(0.131738 0 0)
(0.131738 0 0)
(0.131738 0 0)
(0.131738 0 0)
(0.131738 0 0)
(0.131738 0 0)
(0.131738 0 0)
(0.131738 0 0)
(0.131738 0 0)
(0.131738 0 0)
(0.131738 0 0)
(0.131738 0 0)
(0.131738 0 0)
(0.131738 0 0)
(0.131738 0 0)
(0.131738 0 0)
(0.131738 0 0)
(0.131738 0 0)
(0.131738 0 0)
(0.131738 0 0)
(0.131738 0 0)
(0.131738 0 0)
(0.131738 0 0)
(0.131738 0 0)
(0.131738 0 0)
(0.131738 0 0)
(0.131738 0 0)
(0.131738 0 0)
(0.131738 0 0)
(0.131738 0 0)
(0.131738 0 0)
(0.131738 0 0)
(0.131738 0 0)
(0.131738 0 0)
(0.131738 0 0)
(0.131738 0 0)
(0.131738 0 0)
(0.131738 0 0)
(0.131738 0 0)
(0.131738 0 0)
(0.131738 0 0)
(0.131738 0 0)
(0.131738 0 0)
(0.131738 0 0)
(0.131738 0 0)
(0.131738 0 0)
(0.131738 0 0)
(0.131738 0 0)
(0.131738 0 0)
(0.131738 0 0)
(0.131738 0 0)
(0.131738 0 0)
(0.131738 0 0)
(0.131738 0 0)
(0.131738 0 0)
(0.131738 0 0)
(0.131738 0 0)
(0.131738 0 0)
(0.131738 0 0)
(0.131738 0 0)
(0.131738 0 0)
(0.131738 0 0)
(0.131738 0 0)
(0.131738 0 0)
(0.131738 0 0)
(0.131738 0 0)
(0.131738 0 0)
(0.131738 0 0)
(0.131738 0 0)
(0.131738 0 0)
(0.131738 0 0)
(0.131738 0 0)
(0.131738 0 0)
(0.131738 0 0)
(0.131738 0 0)
(0.131738 0 0)
(0.131738 0 0)
(0.131738 0 0)
(0.131738 0 0)
(0.131738 0 0)
(0.131738 0 0)
(0.131738 0 0)
(0.131738 0 0)
(0.131738 0 0)
(0.131738 0 0)
(0.131738 0 0)
(0.131738 0 0)
(0.131738 0 0)
(0.131738 0 0)
(0.131738 0 0)
(0.131738 0 0)
(0.131738 0 0)
(0.131738 0 0)
(0.131738 0 0)
(0.131738 0 0)
(0.131738 0 0)
(0.131738 0 0)
(0.131738 0 0)
(0.131738 0 0)
(0.131738 0 0)
(0.131738 0 0)
(0.131738 0 0)
(0.131738 0 0)
(0.131738 0 0)
(0.131738 0 0)
(0.131738 0 0)
(0.131738 0 0)
(0.131738 0 0)
(0.131738 0 0)
(0.131738 0 0)
(0.131738 0 0)
(0.131738 0 0)
(0.131738 0 0)
(0.131738 0 0)
(0.131738 0 0)
(0.131738 0 0)
(0.131738 0 0)
(0.131738 0 0)
(0.131738 0 0)
(0.131738 0 0)
(0.131738 0 0)
(0.131738 0 0)
(0.131738 0 0)
(0.131738 0 0)
(0.131738 0 0)
(0.131738 0 0)
(0.131738 0 0)
(0.131738 0 0)
(0.131738 0 0)
(0.131738 0 0)
(0.131738 0 0)
(0.131738 0 0)
(0.131738 0 0)
(0.131738 0 0)
(0.131738 0 0)
(0.131738 0 0)
(0.131738 0 0)
(0.131738 0 0)
(0.131738 0 0)
(0.131738 0 0)
(0.131738 0 0)
(0.131738 0 0)
(0.131738 0 0)
(0.131738 0 0)
(0.131738 0 0)
(0.131738 0 0)
(0.131738 0 0)
(0.131738 0 0)
(0.131738 0 0)
(0.131738 0 0)
(0.131738 0 0)
(0.131738 0 0)
(0.131738 0 0)
(0.131738 0 0)
(0.131738 0 0)
(0.131738 0 0)
(0.131738 0 0)
(0.131738 0 0)
(0.131738 0 0)
(0.131738 0 0)
(0.131738 0 0)
(0.131738 0 0)
(0.131738 0 0)
(0.131738 0 0)
(0.131738 0 0)
(0.131738 0 0)
(0.131738 0 0)
(0.131738 0 0)
(0.131738 0 0)
(0.131738 0 0)
(0.131738 0 0)
(0.131738 0 0)
(0.131738 0 0)
(0.131738 0 0)
(0.131738 0 0)
(0.131738 0 0)
(0.131738 0 0)
(0.131738 0 0)
(0.131738 0 0)
(0.131738 0 0)
(0.131738 0 0)
(0.131738 0 0)
(0.131738 0 0)
(0.131738 0 0)
(0.131738 0 0)
(0.131738 0 0)
(0.131738 0 0)
(0.131738 0 0)
(0.131738 0 0)
(0.131738 0 0)
(0.131738 0 0)
(0.131738 0 0)
(0.131738 0 0)
(0.131738 0 0)
(0.131738 0 0)
(0.131738 0 0)
(0.131738 0 0)
(0.131738 0 0)
(0.131738 0 0)
(0.131738 0 0)
(0.131738 0 0)
(0.131738 0 0)
(0.131738 0 0)
(0.131738 0 0)
(0.131738 0 0)
(0.131738 0 0)
(0.131738 0 0)
(0.131738 0 0)
(0.131738 0 0)
(0.131738 0 0)
(0.131738 0 0)
(0.131738 0 0)
(0.131738 0 0)
(0.131738 0 0)
(0.131738 0 0)
(0.131738 0 0)
(0.131738 0 0)
(0.131738 0 0)
(0.131738 0 0)
(0.131738 0 0)
(0.131738 0 0)
(0.131738 0 0)
(0.131738 0 0)
(0.131738 0 0)
(0.131738 0 0)
(0.131738 0 0)
(0.131738 0 0)
(0.131738 0 0)
(0.131738 0 0)
(0.131738 0 0)
(0.131738 0 0)
(0.131738 0 0)
(0.131738 0 0)
(0.131738 0 0)
(0.131738 0 0)
(0.131738 0 0)
(0.131738 0 0)
(0.131738 0 0)
(0.131738 0 0)
(0.131738 0 0)
(0.131738 0 0)
(0.131738 0 0)
(0.131738 0 0)
(0.131738 0 0)
(0.131738 0 0)
(0.131738 0 0)
(0.131738 0 0)
(0.131738 0 0)
(0.131738 0 0)
(0.131738 0 0)
(0.131738 0 0)
(0.131738 0 0)
(0.131738 0 0)
(0.131738 0 0)
(0.131738 0 0)
(0.131738 0 0)
(0.131738 0 0)
(0.131738 0 0)
(0.131738 0 0)
(0.131738 0 0)
(0.131738 0 0)
(0.131738 0 0)
(0.131738 0 0)
(0.131738 0 0)
(0.131738 0 0)
(0.131738 0 0)
(0.131738 0 0)
(0.131738 0 0)
(0.131738 0 0)
(0.131738 0 0)
(0.131738 0 0)
(0.131738 0 0)
(0.131738 0 0)
(0.131738 0 0)
(0.131738 0 0)
(0.131738 0 0)
(0.131738 0 0)
(0.131738 0 0)
(0.131738 0 0)
(0.131738 0 0)
(0.131738 0 0)
(0.131738 0 0)
(0.131738 0 0)
(0.131738 0 0)
(0.131738 0 0)
(0.131738 0 0)
(0.131738 0 0)
(0.131738 0 0)
(0.131738 0 0)
(0.131738 0 0)
(0.131738 0 0)
(0.131738 0 0)
(0.131738 0 0)
(0.131738 0 0)
(0.131738 0 0)
(0.131738 0 0)
(0.131738 0 0)
(0.131738 0 0)
(0.131738 0 0)
(0.131738 0 0)
(0.131738 0 0)
(0.131738 0 0)
(0.131738 0 0)
(0.131738 0 0)
(0.131738 0 0)
(0.131738 0 0)
(0.131738 0 0)
(0.131738 0 0)
(0.131738 0 0)
(0.131738 0 0)
(0.131738 0 0)
(0.131738 0 0)
(0.131738 0 0)
(0.131738 0 0)
(0.131738 0 0)
(0.131738 0 0)
(0.131738 0 0)
(0.131738 0 0)
(0.131738 0 0)
(0.131738 0 0)
(0.131738 0 0)
(0.131738 0 0)
(0.131738 0 0)
(0.131738 0 0)
(0.131738 0 0)
(0.131738 0 0)
(0.131738 0 0)
(0.131738 0 0)
(0.131738 0 0)
(0.131738 0 0)
(0.131738 0 0)
(0.131738 0 0)
(0.131738 0 0)
(0.131738 0 0)
(0.131738 0 0)
(0.131738 0 0)
(0.131738 0 0)
(0.131738 0 0)
(0.131738 0 0)
(0.131738 0 0)
(0.131738 0 0)
(0.131738 0 0)
(0.131738 0 0)
(0.131738 0 0)
(0.131738 0 0)
(0.131738 0 0)
(0.131738 0 0)
(0.131738 0 0)
(0.131738 0 0)
(0.131738 0 0)
(0.131738 0 0)
(0.131738 0 0)
(0.131738 0 0)
(0.131738 0 0)
(0.131738 0 0)
(0.131738 0 0)
(0.131738 0 0)
(0.131738 0 0)
(0.131738 0 0)
(0.131738 0 0)
(0.131738 0 0)
(0.131738 0 0)
(0.131738 0 0)
(0.131738 0 0)
(0.131738 0 0)
(0.131738 0 0)
(0.131738 0 0)
(0.131738 0 0)
(0.131738 0 0)
(0.131738 0 0)
(0.131738 0 0)
(0.131738 0 0)
(0.131738 0 0)
(0.131738 0 0)
(0.131738 0 0)
(0.131738 0 0)
(0.131738 0 0)
(0.131738 0 0)
(0.131738 0 0)
(0.131738 0 0)
(0.131738 0 0)
(0.131738 0 0)
(0.131738 0 0)
(0.131738 0 0)
(0.131738 0 0)
(0.131738 0 0)
(0.131738 0 0)
(0.131738 0 0)
(0.131738 0 0)
(0.131738 0 0)
(0.131738 0 0)
(0.131738 0 0)
(0.131738 0 0)
(0.131738 0 0)
(0.131738 0 0)
(0.131738 0 0)
(0.131738 0 0)
(0.131738 0 0)
(0.131738 0 0)
(0.131738 0 0)
(0.131738 0 0)
(0.131738 0 0)
(0.131738 0 0)
(0.131738 0 0)
(0.131738 0 0)
(0.131738 0 0)
(0.131738 0 0)
(0.131738 0 0)
(0.131738 0 0)
(0.131738 0 0)
(0.131738 0 0)
(0.131738 0 0)
(0.131738 0 0)
(0.131738 0 0)
(0.131738 0 0)
(0.131738 0 0)
(0.131738 0 0)
(0.131738 0 0)
(0.131738 0 0)
(0.131738 0 0)
(0.131738 0 0)
(0.131738 0 0)
(0.131738 0 0)
(0.131738 0 0)
(0.131738 0 0)
(0.131738 0 0)
(0.131738 0 0)
(0.131738 0 0)
(0.131738 0 0)
(0.131738 0 0)
(0.131738 0 0)
(0.131738 0 0)
(0.131738 0 0)
(0.131738 0 0)
(0.131738 0 0)
(0.131738 0 0)
(0.131738 0 0)
(0.131738 0 0)
(0.131738 0 0)
(0.131738 0 0)
(0.131738 0 0)
(0.131738 0 0)
(0.131738 0 0)
(0.131738 0 0)
(0.131738 0 0)
(0.131738 0 0)
(0.131738 0 0)
(0.131738 0 0)
(0.131738 0 0)
(0.131738 0 0)
(0.131738 0 0)
(0.131738 0 0)
(0.131738 0 0)
(0.131738 0 0)
(0.131738 0 0)
(0.131738 0 0)
(0.131738 0 0)
(0.131738 0 0)
(0.131738 0 0)
(0.131738 0 0)
(0.131738 0 0)
(0.131738 0 0)
(0.131738 0 0)
(0.131738 0 0)
(0.131738 0 0)
(0.131738 0 0)
(0.131738 0 0)
(0.131738 0 0)
(0.131738 0 0)
(0.131738 0 0)
(0.131738 0 0)
(0.131738 0 0)
(0.131738 0 0)
(0.131738 0 0)
(0.131738 0 0)
(0.131738 0 0)
(0.131738 0 0)
(0.131738 0 0)
(0.131738 0 0)
(0.131738 0 0)
(0.131738 0 0)
(0.131738 0 0)
(0.131738 0 0)
(0.131738 0 0)
(0.131738 0 0)
(0.131738 0 0)
(0.131738 0 0)
(0.131738 0 0)
(0.131738 0 0)
(0.131738 0 0)
(0.131738 0 0)
(0.131738 0 0)
(0.131738 0 0)
(0.131738 0 0)
(0.131738 0 0)
(0.131738 0 0)
(0.131738 0 0)
(0.131738 0 0)
(0.131738 0 0)
(0.131738 0 0)
(0.131738 0 0)
(0.131738 0 0)
(0.131738 0 0)
(0.131738 0 0)
(0.131738 0 0)
(0.131738 0 0)
(0.131738 0 0)
(0.131738 0 0)
(0.131738 0 0)
(0.131738 0 0)
(0.131738 0 0)
(0.131738 0 0)
(0.131738 0 0)
(0.131738 0 0)
(0.131738 0 0)
(0.131738 0 0)
(0.131738 0 0)
(0.131738 0 0)
(0.131738 0 0)
(0.131738 0 0)
(0.131738 0 0)
(0.131738 0 0)
(0.131738 0 0)
(0.131738 0 0)
(0.131738 0 0)
(0.131738 0 0)
(0.131738 0 0)
(0.131738 0 0)
(0.131738 0 0)
(0.131738 0 0)
(0.131738 0 0)
(0.131738 0 0)
(0.131738 0 0)
(0.131738 0 0)
(0.131738 0 0)
(0.131738 0 0)
(0.131738 0 0)
(0.131738 0 0)
(0.131738 0 0)
(0.131738 0 0)
(0.131738 0 0)
(0.131738 0 0)
(0.131738 0 0)
(0.131738 0 0)
(0.131738 0 0)
(0.131738 0 0)
(0.131738 0 0)
(0.131738 0 0)
(0.131738 0 0)
(0.131738 0 0)
(0.131738 0 0)
(0.131737 0 0)
(0.131739 0 0)
(0.131737 0 0)
(0.131739 0 0)
(0.131737 0 0)
(0.131739 0 0)
(0.131737 0 0)
(0.131739 0 0)
(0.131737 0 0)
(0.131739 0 0)
(0.131736 0 0)
(0.13174 0 0)
(0.131736 0 0)
(0.13174 0 0)
(0.131735 0 0)
(0.13174 0 0)
(0.131735 0 0)
)
;

boundaryField
{
    topWall
    {
        type            empty;
    }
    bottomWall
    {
        type            empty;
    }
    leftAndRight_half1
    {
        type            cyclic;
    }
    leftAndRight_half0
    {
        type            cyclic;
    }
    frontAndBack
    {
        type            empty;
    }
}


// ************************************************************************* //
