/*--------------------------------*- C++ -*----------------------------------*\
  =========                 |
  \\      /  F ield         | OpenFOAM: The Open Source CFD Toolbox
   \\    /   O peration     | Website:  https://openfoam.org
    \\  /    A nd           | Version:  9
     \\/     M anipulation  |
\*---------------------------------------------------------------------------*/
FoamFile
{
    format      ascii;
    class       volVectorField;
    location    "3.25";
    object      U;
}
// * * * * * * * * * * * * * * * * * * * * * * * * * * * * * * * * * * * * * //

dimensions      [0 1 -1 0 0 0 0];

internalField   nonuniform List<vector> 
1000
(
(0.131765 0 0)
(0.131694 0 0)
(0.131765 0 0)
(0.131692 0 0)
(0.131766 0 0)
(0.13169 0 0)
(0.131767 0 0)
(0.131688 0 0)
(0.131767 0 0)
(0.131686 0 0)
(0.131768 0 0)
(0.131684 0 0)
(0.131768 0 0)
(0.131682 0 0)
(0.131768 0 0)
(0.13168 0 0)
(0.131769 0 0)
(0.131678 0 0)
(0.131769 0 0)
(0.131676 0 0)
(0.131769 0 0)
(0.131674 0 0)
(0.131769 0 0)
(0.131672 0 0)
(0.131769 0 0)
(0.131671 0 0)
(0.131769 0 0)
(0.131669 0 0)
(0.13177 0 0)
(0.131668 0 0)
(0.13177 0 0)
(0.131667 0 0)
(0.13177 0 0)
(0.131666 0 0)
(0.13177 0 0)
(0.131665 0 0)
(0.13177 0 0)
(0.131664 0 0)
(0.13177 0 0)
(0.131664 0 0)
(0.13177 0 0)
(0.131665 0 0)
(0.131771 0 0)
(0.131665 0 0)
(0.131771 0 0)
(0.131666 0 0)
(0.131772 0 0)
(0.131667 0 0)
(0.131773 0 0)
(0.131669 0 0)
(0.131774 0 0)
(0.131672 0 0)
(0.131776 0 0)
(0.131675 0 0)
(0.131778 0 0)
(0.131678 0 0)
(0.13178 0 0)
(0.131683 0 0)
(0.131784 0 0)
(0.131688 0 0)
(0.131787 0 0)
(0.131694 0 0)
(0.131791 0 0)
(0.1317 0 0)
(0.131796 0 0)
(0.131708 0 0)
(0.131802 0 0)
(0.131717 0 0)
(0.131808 0 0)
(0.131726 0 0)
(0.131816 0 0)
(0.131737 0 0)
(0.131824 0 0)
(0.131749 0 0)
(0.131834 0 0)
(0.131762 0 0)
(0.131845 0 0)
(0.131777 0 0)
(0.131857 0 0)
(0.131793 0 0)
(0.13187 0 0)
(0.13181 0 0)
(0.131886 0 0)
(0.131827 0 0)
(0.131905 0 0)
(0.131844 0 0)
(0.131929 0 0)
(0.131857 0 0)
(0.131965 0 0)
(0.131858 0 0)
(0.13202 0 0)
(0.131844 0 0)
(0.132099 0 0)
(0.131823 0 0)
(0.132188 0 0)
(0.131834 0 0)
(0.132253 0 0)
(0.131928 0 0)
(0.132284 0 0)
(0.132097 0 0)
(0.132339 0 0)
(0.132268 0 0)
(0.132443 0 0)
(0.132411 0 0)
(0.132559 0 0)
(0.132528 0 0)
(0.132659 0 0)
(0.132619 0 0)
(0.132733 0 0)
(0.132686 0 0)
(0.132785 0 0)
(0.132735 0 0)
(0.132822 0 0)
(0.132773 0 0)
(0.132851 0 0)
(0.132805 0 0)
(0.132877 0 0)
(0.132835 0 0)
(0.132903 0 0)
(0.132865 0 0)
(0.132929 0 0)
(0.132896 0 0)
(0.132956 0 0)
(0.132928 0 0)
(0.132985 0 0)
(0.132961 0 0)
(0.133015 0 0)
(0.132995 0 0)
(0.133046 0 0)
(0.13303 0 0)
(0.133078 0 0)
(0.133066 0 0)
(0.133112 0 0)
(0.133103 0 0)
(0.133146 0 0)
(0.133141 0 0)
(0.133182 0 0)
(0.13318 0 0)
(0.133219 0 0)
(0.133219 0 0)
(0.133256 0 0)
(0.133259 0 0)
(0.133294 0 0)
(0.133299 0 0)
(0.133332 0 0)
(0.13334 0 0)
(0.133371 0 0)
(0.133381 0 0)
(0.133411 0 0)
(0.133422 0 0)
(0.13345 0 0)
(0.133463 0 0)
(0.13349 0 0)
(0.133504 0 0)
(0.13353 0 0)
(0.133544 0 0)
(0.133569 0 0)
(0.133585 0 0)
(0.133608 0 0)
(0.133624 0 0)
(0.133647 0 0)
(0.133663 0 0)
(0.133685 0 0)
(0.133702 0 0)
(0.133722 0 0)
(0.133739 0 0)
(0.133758 0 0)
(0.133776 0 0)
(0.133794 0 0)
(0.133811 0 0)
(0.133828 0 0)
(0.133844 0 0)
(0.13386 0 0)
(0.133877 0 0)
(0.133891 0 0)
(0.133907 0 0)
(0.133921 0 0)
(0.133936 0 0)
(0.133949 0 0)
(0.133963 0 0)
(0.133975 0 0)
(0.133988 0 0)
(0.133998 0 0)
(0.134012 0 0)
(0.13402 0 0)
(0.134033 0 0)
(0.134038 0 0)
(0.134052 0 0)
(0.134054 0 0)
(0.134069 0 0)
(0.134067 0 0)
(0.134083 0 0)
(0.134078 0 0)
(0.134093 0 0)
(0.134088 0 0)
(0.1341 0 0)
(0.134097 0 0)
(0.134106 0 0)
(0.134107 0 0)
(0.134117 0 0)
(0.13412 0 0)
(0.134132 0 0)
(0.134132 0 0)
(0.134128 0 0)
(0.134095 0 0)
(0.134042 0 0)
(0.133959 0 0)
(0.133869 0 0)
(0.133773 0 0)
(0.133696 0 0)
(0.133629 0 0)
(0.133586 0 0)
(0.133552 0 0)
(0.133534 0 0)
(0.133519 0 0)
(0.133513 0 0)
(0.133505 0 0)
(0.133503 0 0)
(0.133497 0 0)
(0.133495 0 0)
(0.133489 0 0)
(0.133487 0 0)
(0.13348 0 0)
(0.133476 0 0)
(0.133468 0 0)
(0.133463 0 0)
(0.133455 0 0)
(0.133449 0 0)
(0.133439 0 0)
(0.133431 0 0)
(0.133421 0 0)
(0.133412 0 0)
(0.133401 0 0)
(0.133391 0 0)
(0.133379 0 0)
(0.133368 0 0)
(0.133355 0 0)
(0.133343 0 0)
(0.133329 0 0)
(0.133317 0 0)
(0.133302 0 0)
(0.133288 0 0)
(0.133273 0 0)
(0.133259 0 0)
(0.133243 0 0)
(0.133227 0 0)
(0.133211 0 0)
(0.133195 0 0)
(0.133178 0 0)
(0.133161 0 0)
(0.133143 0 0)
(0.133126 0 0)
(0.133108 0 0)
(0.133091 0 0)
(0.133072 0 0)
(0.133054 0 0)
(0.133035 0 0)
(0.133016 0 0)
(0.132997 0 0)
(0.132978 0 0)
(0.132959 0 0)
(0.13294 0 0)
(0.13292 0 0)
(0.132901 0 0)
(0.132881 0 0)
(0.132862 0 0)
(0.132842 0 0)
(0.132822 0 0)
(0.132802 0 0)
(0.132783 0 0)
(0.132763 0 0)
(0.132743 0 0)
(0.132723 0 0)
(0.132704 0 0)
(0.132684 0 0)
(0.132665 0 0)
(0.132645 0 0)
(0.132626 0 0)
(0.132607 0 0)
(0.132588 0 0)
(0.132569 0 0)
(0.13255 0 0)
(0.132531 0 0)
(0.132512 0 0)
(0.132494 0 0)
(0.132476 0 0)
(0.132458 0 0)
(0.13244 0 0)
(0.132422 0 0)
(0.132405 0 0)
(0.132388 0 0)
(0.132371 0 0)
(0.132354 0 0)
(0.132337 0 0)
(0.132321 0 0)
(0.132305 0 0)
(0.132289 0 0)
(0.132273 0 0)
(0.132258 0 0)
(0.132243 0 0)
(0.132228 0 0)
(0.132213 0 0)
(0.132199 0 0)
(0.132185 0 0)
(0.132171 0 0)
(0.132158 0 0)
(0.132145 0 0)
(0.132132 0 0)
(0.132119 0 0)
(0.132106 0 0)
(0.132094 0 0)
(0.132082 0 0)
(0.132071 0 0)
(0.132059 0 0)
(0.132048 0 0)
(0.132038 0 0)
(0.132027 0 0)
(0.132017 0 0)
(0.132007 0 0)
(0.131997 0 0)
(0.131988 0 0)
(0.131978 0 0)
(0.131969 0 0)
(0.131961 0 0)
(0.131952 0 0)
(0.131944 0 0)
(0.131936 0 0)
(0.131928 0 0)
(0.131921 0 0)
(0.131913 0 0)
(0.131906 0 0)
(0.131899 0 0)
(0.131893 0 0)
(0.131886 0 0)
(0.13188 0 0)
(0.131874 0 0)
(0.131868 0 0)
(0.131863 0 0)
(0.131857 0 0)
(0.131852 0 0)
(0.131847 0 0)
(0.131842 0 0)
(0.131838 0 0)
(0.131833 0 0)
(0.131829 0 0)
(0.131825 0 0)
(0.131821 0 0)
(0.131817 0 0)
(0.131813 0 0)
(0.131809 0 0)
(0.131806 0 0)
(0.131803 0 0)
(0.1318 0 0)
(0.131797 0 0)
(0.131794 0 0)
(0.131791 0 0)
(0.131788 0 0)
(0.131786 0 0)
(0.131783 0 0)
(0.131781 0 0)
(0.131779 0 0)
(0.131777 0 0)
(0.131775 0 0)
(0.131773 0 0)
(0.131771 0 0)
(0.131769 0 0)
(0.131767 0 0)
(0.131766 0 0)
(0.131764 0 0)
(0.131763 0 0)
(0.131761 0 0)
(0.13176 0 0)
(0.131759 0 0)
(0.131758 0 0)
(0.131757 0 0)
(0.131756 0 0)
(0.131755 0 0)
(0.131754 0 0)
(0.131753 0 0)
(0.131752 0 0)
(0.131751 0 0)
(0.13175 0 0)
(0.131749 0 0)
(0.131749 0 0)
(0.131748 0 0)
(0.131747 0 0)
(0.131747 0 0)
(0.131746 0 0)
(0.131746 0 0)
(0.131745 0 0)
(0.131745 0 0)
(0.131744 0 0)
(0.131744 0 0)
(0.131744 0 0)
(0.131743 0 0)
(0.131743 0 0)
(0.131743 0 0)
(0.131742 0 0)
(0.131742 0 0)
(0.131742 0 0)
(0.131741 0 0)
(0.131741 0 0)
(0.131741 0 0)
(0.131741 0 0)
(0.131741 0 0)
(0.13174 0 0)
(0.13174 0 0)
(0.13174 0 0)
(0.13174 0 0)
(0.13174 0 0)
(0.13174 0 0)
(0.13174 0 0)
(0.131739 0 0)
(0.131739 0 0)
(0.131739 0 0)
(0.131739 0 0)
(0.131739 0 0)
(0.131739 0 0)
(0.131739 0 0)
(0.131739 0 0)
(0.131739 0 0)
(0.131739 0 0)
(0.131739 0 0)
(0.131739 0 0)
(0.131739 0 0)
(0.131739 0 0)
(0.131738 0 0)
(0.131738 0 0)
(0.131738 0 0)
(0.131738 0 0)
(0.131738 0 0)
(0.131738 0 0)
(0.131738 0 0)
(0.131738 0 0)
(0.131738 0 0)
(0.131738 0 0)
(0.131738 0 0)
(0.131738 0 0)
(0.131738 0 0)
(0.131738 0 0)
(0.131738 0 0)
(0.131738 0 0)
(0.131738 0 0)
(0.131738 0 0)
(0.131738 0 0)
(0.131738 0 0)
(0.131738 0 0)
(0.131738 0 0)
(0.131738 0 0)
(0.131738 0 0)
(0.131738 0 0)
(0.131738 0 0)
(0.131738 0 0)
(0.131738 0 0)
(0.131738 0 0)
(0.131738 0 0)
(0.131738 0 0)
(0.131738 0 0)
(0.131738 0 0)
(0.131738 0 0)
(0.131738 0 0)
(0.131738 0 0)
(0.131738 0 0)
(0.131738 0 0)
(0.131738 0 0)
(0.131738 0 0)
(0.131738 0 0)
(0.131738 0 0)
(0.131738 0 0)
(0.131738 0 0)
(0.131738 0 0)
(0.131738 0 0)
(0.131738 0 0)
(0.131738 0 0)
(0.131738 0 0)
(0.131738 0 0)
(0.131738 0 0)
(0.131738 0 0)
(0.131738 0 0)
(0.131738 0 0)
(0.131738 0 0)
(0.131738 0 0)
(0.131738 0 0)
(0.131738 0 0)
(0.131738 0 0)
(0.131738 0 0)
(0.131738 0 0)
(0.131738 0 0)
(0.131738 0 0)
(0.131738 0 0)
(0.131738 0 0)
(0.131738 0 0)
(0.131738 0 0)
(0.131738 0 0)
(0.131738 0 0)
(0.131738 0 0)
(0.131738 0 0)
(0.131738 0 0)
(0.131738 0 0)
(0.131738 0 0)
(0.131738 0 0)
(0.131738 0 0)
(0.131738 0 0)
(0.131738 0 0)
(0.131738 0 0)
(0.131738 0 0)
(0.131738 0 0)
(0.131738 0 0)
(0.131738 0 0)
(0.131738 0 0)
(0.131738 0 0)
(0.131738 0 0)
(0.131738 0 0)
(0.131738 0 0)
(0.131738 0 0)
(0.131738 0 0)
(0.131738 0 0)
(0.131738 0 0)
(0.131738 0 0)
(0.131738 0 0)
(0.131738 0 0)
(0.131738 0 0)
(0.131738 0 0)
(0.131738 0 0)
(0.131738 0 0)
(0.131738 0 0)
(0.131738 0 0)
(0.131738 0 0)
(0.131738 0 0)
(0.131738 0 0)
(0.131738 0 0)
(0.131738 0 0)
(0.131738 0 0)
(0.131738 0 0)
(0.131738 0 0)
(0.131738 0 0)
(0.131738 0 0)
(0.131738 0 0)
(0.131738 0 0)
(0.131738 0 0)
(0.131738 0 0)
(0.131738 0 0)
(0.131738 0 0)
(0.131738 0 0)
(0.131738 0 0)
(0.131738 0 0)
(0.131738 0 0)
(0.131738 0 0)
(0.131738 0 0)
(0.131738 0 0)
(0.131738 0 0)
(0.131738 0 0)
(0.131738 0 0)
(0.131738 0 0)
(0.131738 0 0)
(0.131738 0 0)
(0.131738 0 0)
(0.131738 0 0)
(0.131738 0 0)
(0.131738 0 0)
(0.131738 0 0)
(0.131738 0 0)
(0.131738 0 0)
(0.131738 0 0)
(0.131738 0 0)
(0.131738 0 0)
(0.131738 0 0)
(0.131738 0 0)
(0.131738 0 0)
(0.131738 0 0)
(0.131738 0 0)
(0.131738 0 0)
(0.131738 0 0)
(0.131738 0 0)
(0.131738 0 0)
(0.131738 0 0)
(0.131738 0 0)
(0.131738 0 0)
(0.131738 0 0)
(0.131738 0 0)
(0.131738 0 0)
(0.131738 0 0)
(0.131738 0 0)
(0.131738 0 0)
(0.131738 0 0)
(0.131738 0 0)
(0.131738 0 0)
(0.131738 0 0)
(0.131738 0 0)
(0.131738 0 0)
(0.131738 0 0)
(0.131738 0 0)
(0.131738 0 0)
(0.131738 0 0)
(0.131738 0 0)
(0.131738 0 0)
(0.131738 0 0)
(0.131738 0 0)
(0.131738 0 0)
(0.131738 0 0)
(0.131738 0 0)
(0.131738 0 0)
(0.131738 0 0)
(0.131738 0 0)
(0.131738 0 0)
(0.131738 0 0)
(0.131738 0 0)
(0.131738 0 0)
(0.131738 0 0)
(0.131738 0 0)
(0.131738 0 0)
(0.131738 0 0)
(0.131738 0 0)
(0.131738 0 0)
(0.131738 0 0)
(0.131738 0 0)
(0.131738 0 0)
(0.131738 0 0)
(0.131738 0 0)
(0.131738 0 0)
(0.131738 0 0)
(0.131738 0 0)
(0.131738 0 0)
(0.131738 0 0)
(0.131738 0 0)
(0.131738 0 0)
(0.131738 0 0)
(0.131738 0 0)
(0.131738 0 0)
(0.131738 0 0)
(0.131738 0 0)
(0.131738 0 0)
(0.131738 0 0)
(0.131738 0 0)
(0.131738 0 0)
(0.131738 0 0)
(0.131738 0 0)
(0.131738 0 0)
(0.131738 0 0)
(0.131738 0 0)
(0.131738 0 0)
(0.131738 0 0)
(0.131738 0 0)
(0.131738 0 0)
(0.131738 0 0)
(0.131738 0 0)
(0.131738 0 0)
(0.131738 0 0)
(0.131738 0 0)
(0.131738 0 0)
(0.131738 0 0)
(0.131738 0 0)
(0.131738 0 0)
(0.131738 0 0)
(0.131738 0 0)
(0.131738 0 0)
(0.131738 0 0)
(0.131738 0 0)
(0.131738 0 0)
(0.131738 0 0)
(0.131738 0 0)
(0.131738 0 0)
(0.131738 0 0)
(0.131738 0 0)
(0.131738 0 0)
(0.131738 0 0)
(0.131738 0 0)
(0.131738 0 0)
(0.131738 0 0)
(0.131738 0 0)
(0.131738 0 0)
(0.131738 0 0)
(0.131738 0 0)
(0.131738 0 0)
(0.131738 0 0)
(0.131738 0 0)
(0.131738 0 0)
(0.131738 0 0)
(0.131738 0 0)
(0.131738 0 0)
(0.131738 0 0)
(0.131738 0 0)
(0.131738 0 0)
(0.131738 0 0)
(0.131738 0 0)
(0.131738 0 0)
(0.131738 0 0)
(0.131738 0 0)
(0.131738 0 0)
(0.131738 0 0)
(0.131738 0 0)
(0.131738 0 0)
(0.131738 0 0)
(0.131738 0 0)
(0.131738 0 0)
(0.131738 0 0)
(0.131738 0 0)
(0.131738 0 0)
(0.131738 0 0)
(0.131738 0 0)
(0.131738 0 0)
(0.131738 0 0)
(0.131738 0 0)
(0.131738 0 0)
(0.131738 0 0)
(0.131738 0 0)
(0.131738 0 0)
(0.131738 0 0)
(0.131738 0 0)
(0.131738 0 0)
(0.131738 0 0)
(0.131738 0 0)
(0.131738 0 0)
(0.131738 0 0)
(0.131738 0 0)
(0.131738 0 0)
(0.131738 0 0)
(0.131738 0 0)
(0.131738 0 0)
(0.131738 0 0)
(0.131738 0 0)
(0.131738 0 0)
(0.131738 0 0)
(0.131738 0 0)
(0.131738 0 0)
(0.131738 0 0)
(0.131738 0 0)
(0.131738 0 0)
(0.131738 0 0)
(0.131738 0 0)
(0.131738 0 0)
(0.131738 0 0)
(0.131738 0 0)
(0.131738 0 0)
(0.131738 0 0)
(0.131738 0 0)
(0.131738 0 0)
(0.131738 0 0)
(0.131738 0 0)
(0.131738 0 0)
(0.131738 0 0)
(0.131738 0 0)
(0.131738 0 0)
(0.131738 0 0)
(0.131738 0 0)
(0.131738 0 0)
(0.131738 0 0)
(0.131738 0 0)
(0.131738 0 0)
(0.131738 0 0)
(0.131738 0 0)
(0.131738 0 0)
(0.131738 0 0)
(0.131738 0 0)
(0.131738 0 0)
(0.131738 0 0)
(0.131738 0 0)
(0.131738 0 0)
(0.131738 0 0)
(0.131738 0 0)
(0.131738 0 0)
(0.131738 0 0)
(0.131738 0 0)
(0.131738 0 0)
(0.131738 0 0)
(0.131738 0 0)
(0.131738 0 0)
(0.131738 0 0)
(0.131738 0 0)
(0.131738 0 0)
(0.131738 0 0)
(0.131738 0 0)
(0.131738 0 0)
(0.131738 0 0)
(0.131738 0 0)
(0.131738 0 0)
(0.131738 0 0)
(0.131738 0 0)
(0.131738 0 0)
(0.131738 0 0)
(0.131738 0 0)
(0.131738 0 0)
(0.131738 0 0)
(0.131738 0 0)
(0.131738 0 0)
(0.131738 0 0)
(0.131738 0 0)
(0.131738 0 0)
(0.131738 0 0)
(0.131738 0 0)
(0.131738 0 0)
(0.131738 0 0)
(0.131738 0 0)
(0.131738 0 0)
(0.131738 0 0)
(0.131738 0 0)
(0.131738 0 0)
(0.131738 0 0)
(0.131738 0 0)
(0.131738 0 0)
(0.131738 0 0)
(0.131738 0 0)
(0.131738 0 0)
(0.131738 0 0)
(0.131738 0 0)
(0.131738 0 0)
(0.131738 0 0)
(0.131738 0 0)
(0.131738 0 0)
(0.131738 0 0)
(0.131738 0 0)
(0.131738 0 0)
(0.131738 0 0)
(0.131738 0 0)
(0.131738 0 0)
(0.131738 0 0)
(0.131738 0 0)
(0.131738 0 0)
(0.131738 0 0)
(0.131738 0 0)
(0.131738 0 0)
(0.131738 0 0)
(0.131738 0 0)
(0.131738 0 0)
(0.131738 0 0)
(0.131738 0 0)
(0.131738 0 0)
(0.131738 0 0)
(0.131738 0 0)
(0.131738 0 0)
(0.131738 0 0)
(0.131738 0 0)
(0.131738 0 0)
(0.131738 0 0)
(0.131738 0 0)
(0.131738 0 0)
(0.131738 0 0)
(0.131738 0 0)
(0.131738 0 0)
(0.131738 0 0)
(0.131738 0 0)
(0.131738 0 0)
(0.131738 0 0)
(0.131738 0 0)
(0.131738 0 0)
(0.131738 0 0)
(0.131738 0 0)
(0.131738 0 0)
(0.131738 0 0)
(0.131738 0 0)
(0.131738 0 0)
(0.131738 0 0)
(0.131738 0 0)
(0.131738 0 0)
(0.131738 0 0)
(0.131738 0 0)
(0.131738 0 0)
(0.131738 0 0)
(0.131738 0 0)
(0.131738 0 0)
(0.131738 0 0)
(0.131738 0 0)
(0.131738 0 0)
(0.131738 0 0)
(0.131738 0 0)
(0.131738 0 0)
(0.131738 0 0)
(0.131738 0 0)
(0.131738 0 0)
(0.131738 0 0)
(0.131738 0 0)
(0.131738 0 0)
(0.131738 0 0)
(0.131738 0 0)
(0.131738 0 0)
(0.131738 0 0)
(0.131738 0 0)
(0.131738 0 0)
(0.131738 0 0)
(0.131738 0 0)
(0.131738 0 0)
(0.131738 0 0)
(0.131738 0 0)
(0.131738 0 0)
(0.131738 0 0)
(0.131738 0 0)
(0.131738 0 0)
(0.131738 0 0)
(0.131738 0 0)
(0.131738 0 0)
(0.131738 0 0)
(0.131738 0 0)
(0.131738 0 0)
(0.131738 0 0)
(0.131738 0 0)
(0.131738 0 0)
(0.131738 0 0)
(0.131738 0 0)
(0.131738 0 0)
(0.131738 0 0)
(0.131738 0 0)
(0.131737 0 0)
(0.131739 0 0)
(0.131737 0 0)
(0.131739 0 0)
(0.131737 0 0)
(0.131739 0 0)
(0.131737 0 0)
(0.131739 0 0)
(0.131737 0 0)
(0.131739 0 0)
(0.131737 0 0)
(0.131739 0 0)
(0.131737 0 0)
(0.131739 0 0)
(0.131737 0 0)
(0.131739 0 0)
(0.131737 0 0)
(0.131739 0 0)
(0.131736 0 0)
(0.13174 0 0)
(0.131736 0 0)
(0.13174 0 0)
(0.131736 0 0)
(0.13174 0 0)
(0.131736 0 0)
(0.13174 0 0)
(0.131736 0 0)
(0.13174 0 0)
(0.131735 0 0)
(0.131741 0 0)
(0.131735 0 0)
(0.131741 0 0)
(0.131735 0 0)
(0.131741 0 0)
(0.131734 0 0)
(0.131742 0 0)
(0.131734 0 0)
(0.131742 0 0)
(0.131733 0 0)
(0.131742 0 0)
(0.131733 0 0)
(0.131743 0 0)
(0.131732 0 0)
(0.131743 0 0)
(0.131732 0 0)
(0.131744 0 0)
(0.131731 0 0)
(0.131744 0 0)
(0.131731 0 0)
(0.131745 0 0)
(0.13173 0 0)
(0.131745 0 0)
(0.131729 0 0)
(0.131746 0 0)
(0.131728 0 0)
(0.131747 0 0)
(0.131728 0 0)
(0.131747 0 0)
(0.131727 0 0)
(0.131748 0 0)
(0.131726 0 0)
(0.131749 0 0)
(0.131725 0 0)
(0.131749 0 0)
(0.131724 0 0)
(0.13175 0 0)
(0.131723 0 0)
(0.131751 0 0)
(0.131721 0 0)
(0.131752 0 0)
(0.13172 0 0)
(0.131753 0 0)
(0.131719 0 0)
(0.131753 0 0)
(0.131718 0 0)
(0.131754 0 0)
(0.131716 0 0)
(0.131755 0 0)
(0.131715 0 0)
(0.131756 0 0)
(0.131713 0 0)
(0.131757 0 0)
(0.131711 0 0)
(0.131758 0 0)
(0.13171 0 0)
(0.131759 0 0)
(0.131708 0 0)
(0.13176 0 0)
(0.131706 0 0)
(0.131761 0 0)
(0.131704 0 0)
(0.131762 0 0)
(0.131702 0 0)
(0.131762 0 0)
(0.1317 0 0)
(0.131763 0 0)
(0.131698 0 0)
(0.131764 0 0)
(0.131696 0 0)
)
;

boundaryField
{
    topWall
    {
        type            empty;
    }
    bottomWall
    {
        type            empty;
    }
    leftAndRight_half1
    {
        type            cyclic;
    }
    leftAndRight_half0
    {
        type            cyclic;
    }
    frontAndBack
    {
        type            empty;
    }
}


// ************************************************************************* //
