/*--------------------------------*- C++ -*----------------------------------*\
  =========                 |
  \\      /  F ield         | OpenFOAM: The Open Source CFD Toolbox
   \\    /   O peration     | Website:  https://openfoam.org
    \\  /    A nd           | Version:  9
     \\/     M anipulation  |
\*---------------------------------------------------------------------------*/
FoamFile
{
    format      ascii;
    class       volVectorField;
    location    "5";
    object      U;
}
// * * * * * * * * * * * * * * * * * * * * * * * * * * * * * * * * * * * * * //

dimensions      [0 1 -1 0 0 0 0];

internalField   nonuniform List<vector> 
1000
(
(0.13177 0 0)
(0.131696 0 0)
(0.131771 0 0)
(0.131696 0 0)
(0.131771 0 0)
(0.131695 0 0)
(0.131772 0 0)
(0.131695 0 0)
(0.131773 0 0)
(0.131695 0 0)
(0.131773 0 0)
(0.131695 0 0)
(0.131774 0 0)
(0.131695 0 0)
(0.131774 0 0)
(0.131695 0 0)
(0.131775 0 0)
(0.131695 0 0)
(0.131776 0 0)
(0.131696 0 0)
(0.131776 0 0)
(0.131696 0 0)
(0.131777 0 0)
(0.131697 0 0)
(0.131778 0 0)
(0.131698 0 0)
(0.131779 0 0)
(0.131699 0 0)
(0.131781 0 0)
(0.131701 0 0)
(0.131782 0 0)
(0.131703 0 0)
(0.131783 0 0)
(0.131705 0 0)
(0.131785 0 0)
(0.131707 0 0)
(0.131787 0 0)
(0.13171 0 0)
(0.131789 0 0)
(0.131713 0 0)
(0.131791 0 0)
(0.131716 0 0)
(0.131794 0 0)
(0.13172 0 0)
(0.131797 0 0)
(0.131724 0 0)
(0.1318 0 0)
(0.131729 0 0)
(0.131804 0 0)
(0.131734 0 0)
(0.131808 0 0)
(0.131739 0 0)
(0.131812 0 0)
(0.131746 0 0)
(0.131817 0 0)
(0.131752 0 0)
(0.131823 0 0)
(0.131759 0 0)
(0.131829 0 0)
(0.131767 0 0)
(0.131835 0 0)
(0.131776 0 0)
(0.131842 0 0)
(0.131785 0 0)
(0.13185 0 0)
(0.131795 0 0)
(0.131859 0 0)
(0.131806 0 0)
(0.131868 0 0)
(0.131818 0 0)
(0.131878 0 0)
(0.13183 0 0)
(0.131889 0 0)
(0.131843 0 0)
(0.131901 0 0)
(0.131858 0 0)
(0.131914 0 0)
(0.131873 0 0)
(0.131927 0 0)
(0.131889 0 0)
(0.131942 0 0)
(0.131906 0 0)
(0.131959 0 0)
(0.131924 0 0)
(0.131978 0 0)
(0.13194 0 0)
(0.132003 0 0)
(0.131951 0 0)
(0.132038 0 0)
(0.13195 0 0)
(0.132093 0 0)
(0.131933 0 0)
(0.132171 0 0)
(0.131909 0 0)
(0.132258 0 0)
(0.131917 0 0)
(0.13232 0 0)
(0.132007 0 0)
(0.132348 0 0)
(0.132171 0 0)
(0.1324 0 0)
(0.132336 0 0)
(0.132499 0 0)
(0.132474 0 0)
(0.132611 0 0)
(0.132584 0 0)
(0.132705 0 0)
(0.132668 0 0)
(0.132773 0 0)
(0.132727 0 0)
(0.132818 0 0)
(0.132768 0 0)
(0.132847 0 0)
(0.132796 0 0)
(0.132868 0 0)
(0.132818 0 0)
(0.132885 0 0)
(0.132838 0 0)
(0.132901 0 0)
(0.132857 0 0)
(0.132917 0 0)
(0.132876 0 0)
(0.132933 0 0)
(0.132896 0 0)
(0.13295 0 0)
(0.132916 0 0)
(0.132967 0 0)
(0.132937 0 0)
(0.132986 0 0)
(0.132959 0 0)
(0.133005 0 0)
(0.13298 0 0)
(0.133024 0 0)
(0.133003 0 0)
(0.133045 0 0)
(0.133026 0 0)
(0.133066 0 0)
(0.133049 0 0)
(0.133087 0 0)
(0.133073 0 0)
(0.133109 0 0)
(0.133097 0 0)
(0.133132 0 0)
(0.133122 0 0)
(0.133155 0 0)
(0.133146 0 0)
(0.133178 0 0)
(0.133171 0 0)
(0.133201 0 0)
(0.133197 0 0)
(0.133225 0 0)
(0.133222 0 0)
(0.133249 0 0)
(0.133247 0 0)
(0.133273 0 0)
(0.133273 0 0)
(0.133297 0 0)
(0.133298 0 0)
(0.133321 0 0)
(0.133323 0 0)
(0.133345 0 0)
(0.133348 0 0)
(0.133369 0 0)
(0.133373 0 0)
(0.133393 0 0)
(0.133397 0 0)
(0.133416 0 0)
(0.133421 0 0)
(0.133439 0 0)
(0.133444 0 0)
(0.133461 0 0)
(0.133467 0 0)
(0.133483 0 0)
(0.133489 0 0)
(0.133504 0 0)
(0.13351 0 0)
(0.133525 0 0)
(0.133531 0 0)
(0.133544 0 0)
(0.13355 0 0)
(0.133563 0 0)
(0.133569 0 0)
(0.13358 0 0)
(0.133587 0 0)
(0.133596 0 0)
(0.133603 0 0)
(0.133611 0 0)
(0.133619 0 0)
(0.133623 0 0)
(0.133634 0 0)
(0.133635 0 0)
(0.133647 0 0)
(0.133645 0 0)
(0.133658 0 0)
(0.133656 0 0)
(0.133666 0 0)
(0.133667 0 0)
(0.133675 0 0)
(0.133679 0 0)
(0.133689 0 0)
(0.133697 0 0)
(0.133709 0 0)
(0.133714 0 0)
(0.133712 0 0)
(0.133684 0 0)
(0.133633 0 0)
(0.133555 0 0)
(0.133469 0 0)
(0.133379 0 0)
(0.133305 0 0)
(0.133245 0 0)
(0.133206 0 0)
(0.133179 0 0)
(0.133166 0 0)
(0.133158 0 0)
(0.133158 0 0)
(0.133158 0 0)
(0.133162 0 0)
(0.133164 0 0)
(0.133169 0 0)
(0.133172 0 0)
(0.133177 0 0)
(0.133179 0 0)
(0.133183 0 0)
(0.133184 0 0)
(0.133188 0 0)
(0.133188 0 0)
(0.133191 0 0)
(0.133191 0 0)
(0.133193 0 0)
(0.133192 0 0)
(0.133193 0 0)
(0.133192 0 0)
(0.133192 0 0)
(0.13319 0 0)
(0.133189 0 0)
(0.133187 0 0)
(0.133186 0 0)
(0.133182 0 0)
(0.13318 0 0)
(0.133176 0 0)
(0.133173 0 0)
(0.133169 0 0)
(0.133165 0 0)
(0.13316 0 0)
(0.133156 0 0)
(0.13315 0 0)
(0.133145 0 0)
(0.133138 0 0)
(0.133133 0 0)
(0.133126 0 0)
(0.13312 0 0)
(0.133112 0 0)
(0.133105 0 0)
(0.133097 0 0)
(0.133089 0 0)
(0.133081 0 0)
(0.133072 0 0)
(0.133063 0 0)
(0.133055 0 0)
(0.133045 0 0)
(0.133036 0 0)
(0.133026 0 0)
(0.133016 0 0)
(0.133005 0 0)
(0.132995 0 0)
(0.132984 0 0)
(0.132974 0 0)
(0.132962 0 0)
(0.132951 0 0)
(0.132939 0 0)
(0.132928 0 0)
(0.132916 0 0)
(0.132904 0 0)
(0.132892 0 0)
(0.13288 0 0)
(0.132867 0 0)
(0.132855 0 0)
(0.132842 0 0)
(0.132829 0 0)
(0.132816 0 0)
(0.132803 0 0)
(0.13279 0 0)
(0.132777 0 0)
(0.132764 0 0)
(0.132751 0 0)
(0.132737 0 0)
(0.132724 0 0)
(0.13271 0 0)
(0.132697 0 0)
(0.132683 0 0)
(0.132669 0 0)
(0.132656 0 0)
(0.132642 0 0)
(0.132628 0 0)
(0.132615 0 0)
(0.132601 0 0)
(0.132587 0 0)
(0.132573 0 0)
(0.13256 0 0)
(0.132546 0 0)
(0.132533 0 0)
(0.132519 0 0)
(0.132506 0 0)
(0.132492 0 0)
(0.132479 0 0)
(0.132466 0 0)
(0.132452 0 0)
(0.132439 0 0)
(0.132426 0 0)
(0.132413 0 0)
(0.1324 0 0)
(0.132387 0 0)
(0.132374 0 0)
(0.132362 0 0)
(0.132349 0 0)
(0.132337 0 0)
(0.132325 0 0)
(0.132312 0 0)
(0.1323 0 0)
(0.132288 0 0)
(0.132276 0 0)
(0.132265 0 0)
(0.132253 0 0)
(0.132242 0 0)
(0.13223 0 0)
(0.132219 0 0)
(0.132208 0 0)
(0.132197 0 0)
(0.132186 0 0)
(0.132176 0 0)
(0.132165 0 0)
(0.132155 0 0)
(0.132145 0 0)
(0.132135 0 0)
(0.132125 0 0)
(0.132115 0 0)
(0.132106 0 0)
(0.132096 0 0)
(0.132087 0 0)
(0.132078 0 0)
(0.132069 0 0)
(0.13206 0 0)
(0.132051 0 0)
(0.132043 0 0)
(0.132035 0 0)
(0.132027 0 0)
(0.132019 0 0)
(0.132011 0 0)
(0.132003 0 0)
(0.131995 0 0)
(0.131988 0 0)
(0.131981 0 0)
(0.131974 0 0)
(0.131967 0 0)
(0.13196 0 0)
(0.131953 0 0)
(0.131947 0 0)
(0.13194 0 0)
(0.131934 0 0)
(0.131928 0 0)
(0.131922 0 0)
(0.131916 0 0)
(0.131911 0 0)
(0.131905 0 0)
(0.1319 0 0)
(0.131895 0 0)
(0.13189 0 0)
(0.131885 0 0)
(0.13188 0 0)
(0.131875 0 0)
(0.13187 0 0)
(0.131866 0 0)
(0.131862 0 0)
(0.131857 0 0)
(0.131853 0 0)
(0.131849 0 0)
(0.131845 0 0)
(0.131842 0 0)
(0.131838 0 0)
(0.131834 0 0)
(0.131831 0 0)
(0.131827 0 0)
(0.131824 0 0)
(0.131821 0 0)
(0.131818 0 0)
(0.131815 0 0)
(0.131812 0 0)
(0.131809 0 0)
(0.131807 0 0)
(0.131804 0 0)
(0.131801 0 0)
(0.131799 0 0)
(0.131797 0 0)
(0.131794 0 0)
(0.131792 0 0)
(0.13179 0 0)
(0.131788 0 0)
(0.131786 0 0)
(0.131784 0 0)
(0.131782 0 0)
(0.13178 0 0)
(0.131779 0 0)
(0.131777 0 0)
(0.131775 0 0)
(0.131774 0 0)
(0.131772 0 0)
(0.131771 0 0)
(0.131769 0 0)
(0.131768 0 0)
(0.131767 0 0)
(0.131765 0 0)
(0.131764 0 0)
(0.131763 0 0)
(0.131762 0 0)
(0.131761 0 0)
(0.13176 0 0)
(0.131759 0 0)
(0.131758 0 0)
(0.131757 0 0)
(0.131756 0 0)
(0.131755 0 0)
(0.131755 0 0)
(0.131754 0 0)
(0.131753 0 0)
(0.131752 0 0)
(0.131752 0 0)
(0.131751 0 0)
(0.13175 0 0)
(0.13175 0 0)
(0.131749 0 0)
(0.131749 0 0)
(0.131748 0 0)
(0.131748 0 0)
(0.131747 0 0)
(0.131747 0 0)
(0.131746 0 0)
(0.131746 0 0)
(0.131745 0 0)
(0.131745 0 0)
(0.131745 0 0)
(0.131744 0 0)
(0.131744 0 0)
(0.131744 0 0)
(0.131743 0 0)
(0.131743 0 0)
(0.131743 0 0)
(0.131743 0 0)
(0.131742 0 0)
(0.131742 0 0)
(0.131742 0 0)
(0.131742 0 0)
(0.131742 0 0)
(0.131741 0 0)
(0.131741 0 0)
(0.131741 0 0)
(0.131741 0 0)
(0.131741 0 0)
(0.131741 0 0)
(0.13174 0 0)
(0.13174 0 0)
(0.13174 0 0)
(0.13174 0 0)
(0.13174 0 0)
(0.13174 0 0)
(0.13174 0 0)
(0.13174 0 0)
(0.131739 0 0)
(0.131739 0 0)
(0.131739 0 0)
(0.131739 0 0)
(0.131739 0 0)
(0.131739 0 0)
(0.131739 0 0)
(0.131739 0 0)
(0.131739 0 0)
(0.131739 0 0)
(0.131739 0 0)
(0.131739 0 0)
(0.131739 0 0)
(0.131739 0 0)
(0.131739 0 0)
(0.131739 0 0)
(0.131739 0 0)
(0.131739 0 0)
(0.131738 0 0)
(0.131738 0 0)
(0.131738 0 0)
(0.131738 0 0)
(0.131738 0 0)
(0.131738 0 0)
(0.131738 0 0)
(0.131738 0 0)
(0.131738 0 0)
(0.131738 0 0)
(0.131738 0 0)
(0.131738 0 0)
(0.131738 0 0)
(0.131738 0 0)
(0.131738 0 0)
(0.131738 0 0)
(0.131738 0 0)
(0.131738 0 0)
(0.131738 0 0)
(0.131738 0 0)
(0.131738 0 0)
(0.131738 0 0)
(0.131738 0 0)
(0.131738 0 0)
(0.131738 0 0)
(0.131738 0 0)
(0.131738 0 0)
(0.131738 0 0)
(0.131738 0 0)
(0.131738 0 0)
(0.131738 0 0)
(0.131738 0 0)
(0.131738 0 0)
(0.131738 0 0)
(0.131738 0 0)
(0.131738 0 0)
(0.131738 0 0)
(0.131738 0 0)
(0.131738 0 0)
(0.131738 0 0)
(0.131738 0 0)
(0.131738 0 0)
(0.131738 0 0)
(0.131738 0 0)
(0.131738 0 0)
(0.131738 0 0)
(0.131738 0 0)
(0.131738 0 0)
(0.131738 0 0)
(0.131738 0 0)
(0.131738 0 0)
(0.131738 0 0)
(0.131738 0 0)
(0.131738 0 0)
(0.131738 0 0)
(0.131738 0 0)
(0.131738 0 0)
(0.131738 0 0)
(0.131738 0 0)
(0.131738 0 0)
(0.131738 0 0)
(0.131738 0 0)
(0.131738 0 0)
(0.131738 0 0)
(0.131738 0 0)
(0.131738 0 0)
(0.131738 0 0)
(0.131738 0 0)
(0.131738 0 0)
(0.131738 0 0)
(0.131738 0 0)
(0.131738 0 0)
(0.131738 0 0)
(0.131738 0 0)
(0.131738 0 0)
(0.131738 0 0)
(0.131738 0 0)
(0.131738 0 0)
(0.131738 0 0)
(0.131738 0 0)
(0.131738 0 0)
(0.131738 0 0)
(0.131738 0 0)
(0.131738 0 0)
(0.131738 0 0)
(0.131738 0 0)
(0.131738 0 0)
(0.131738 0 0)
(0.131738 0 0)
(0.131738 0 0)
(0.131738 0 0)
(0.131738 0 0)
(0.131738 0 0)
(0.131738 0 0)
(0.131738 0 0)
(0.131738 0 0)
(0.131738 0 0)
(0.131738 0 0)
(0.131738 0 0)
(0.131738 0 0)
(0.131738 0 0)
(0.131738 0 0)
(0.131738 0 0)
(0.131738 0 0)
(0.131738 0 0)
(0.131738 0 0)
(0.131738 0 0)
(0.131738 0 0)
(0.131738 0 0)
(0.131738 0 0)
(0.131738 0 0)
(0.131738 0 0)
(0.131738 0 0)
(0.131738 0 0)
(0.131738 0 0)
(0.131738 0 0)
(0.131738 0 0)
(0.131738 0 0)
(0.131738 0 0)
(0.131738 0 0)
(0.131738 0 0)
(0.131738 0 0)
(0.131738 0 0)
(0.131738 0 0)
(0.131738 0 0)
(0.131738 0 0)
(0.131738 0 0)
(0.131738 0 0)
(0.131738 0 0)
(0.131738 0 0)
(0.131738 0 0)
(0.131738 0 0)
(0.131738 0 0)
(0.131738 0 0)
(0.131738 0 0)
(0.131738 0 0)
(0.131738 0 0)
(0.131738 0 0)
(0.131738 0 0)
(0.131738 0 0)
(0.131738 0 0)
(0.131738 0 0)
(0.131738 0 0)
(0.131738 0 0)
(0.131738 0 0)
(0.131738 0 0)
(0.131738 0 0)
(0.131738 0 0)
(0.131738 0 0)
(0.131738 0 0)
(0.131738 0 0)
(0.131738 0 0)
(0.131738 0 0)
(0.131738 0 0)
(0.131738 0 0)
(0.131738 0 0)
(0.131738 0 0)
(0.131738 0 0)
(0.131738 0 0)
(0.131738 0 0)
(0.131738 0 0)
(0.131738 0 0)
(0.131738 0 0)
(0.131738 0 0)
(0.131738 0 0)
(0.131738 0 0)
(0.131738 0 0)
(0.131738 0 0)
(0.131738 0 0)
(0.131738 0 0)
(0.131738 0 0)
(0.131738 0 0)
(0.131738 0 0)
(0.131738 0 0)
(0.131738 0 0)
(0.131738 0 0)
(0.131738 0 0)
(0.131738 0 0)
(0.131738 0 0)
(0.131738 0 0)
(0.131738 0 0)
(0.131738 0 0)
(0.131738 0 0)
(0.131738 0 0)
(0.131738 0 0)
(0.131738 0 0)
(0.131738 0 0)
(0.131738 0 0)
(0.131738 0 0)
(0.131738 0 0)
(0.131738 0 0)
(0.131738 0 0)
(0.131738 0 0)
(0.131738 0 0)
(0.131738 0 0)
(0.131738 0 0)
(0.131738 0 0)
(0.131738 0 0)
(0.131738 0 0)
(0.131738 0 0)
(0.131738 0 0)
(0.131738 0 0)
(0.131738 0 0)
(0.131738 0 0)
(0.131738 0 0)
(0.131738 0 0)
(0.131738 0 0)
(0.131738 0 0)
(0.131738 0 0)
(0.131738 0 0)
(0.131738 0 0)
(0.131738 0 0)
(0.131738 0 0)
(0.131738 0 0)
(0.131738 0 0)
(0.131738 0 0)
(0.131738 0 0)
(0.131738 0 0)
(0.131738 0 0)
(0.131738 0 0)
(0.131738 0 0)
(0.131738 0 0)
(0.131738 0 0)
(0.131738 0 0)
(0.131738 0 0)
(0.131738 0 0)
(0.131738 0 0)
(0.131738 0 0)
(0.131738 0 0)
(0.131738 0 0)
(0.131738 0 0)
(0.131738 0 0)
(0.131738 0 0)
(0.131738 0 0)
(0.131738 0 0)
(0.131738 0 0)
(0.131738 0 0)
(0.131738 0 0)
(0.131738 0 0)
(0.131738 0 0)
(0.131738 0 0)
(0.131738 0 0)
(0.131738 0 0)
(0.131738 0 0)
(0.131738 0 0)
(0.131738 0 0)
(0.131738 0 0)
(0.131738 0 0)
(0.131738 0 0)
(0.131738 0 0)
(0.131738 0 0)
(0.131738 0 0)
(0.131738 0 0)
(0.131738 0 0)
(0.131738 0 0)
(0.131738 0 0)
(0.131738 0 0)
(0.131738 0 0)
(0.131738 0 0)
(0.131738 0 0)
(0.131738 0 0)
(0.131738 0 0)
(0.131738 0 0)
(0.131738 0 0)
(0.131738 0 0)
(0.131738 0 0)
(0.131738 0 0)
(0.131738 0 0)
(0.131738 0 0)
(0.131738 0 0)
(0.131738 0 0)
(0.131738 0 0)
(0.131738 0 0)
(0.131738 0 0)
(0.131738 0 0)
(0.131738 0 0)
(0.131738 0 0)
(0.131738 0 0)
(0.131738 0 0)
(0.131738 0 0)
(0.131738 0 0)
(0.131738 0 0)
(0.131738 0 0)
(0.131738 0 0)
(0.131738 0 0)
(0.131738 0 0)
(0.131738 0 0)
(0.131738 0 0)
(0.131738 0 0)
(0.131738 0 0)
(0.131738 0 0)
(0.131738 0 0)
(0.131738 0 0)
(0.131738 0 0)
(0.131738 0 0)
(0.131738 0 0)
(0.131738 0 0)
(0.131738 0 0)
(0.131738 0 0)
(0.131738 0 0)
(0.131738 0 0)
(0.131738 0 0)
(0.131738 0 0)
(0.131738 0 0)
(0.131738 0 0)
(0.131738 0 0)
(0.131738 0 0)
(0.131738 0 0)
(0.131738 0 0)
(0.131738 0 0)
(0.131738 0 0)
(0.131738 0 0)
(0.131738 0 0)
(0.131738 0 0)
(0.131738 0 0)
(0.131738 0 0)
(0.131738 0 0)
(0.131738 0 0)
(0.131738 0 0)
(0.131738 0 0)
(0.131738 0 0)
(0.131738 0 0)
(0.131738 0 0)
(0.131738 0 0)
(0.131738 0 0)
(0.131738 0 0)
(0.131738 0 0)
(0.131738 0 0)
(0.131738 0 0)
(0.131738 0 0)
(0.131738 0 0)
(0.131738 0 0)
(0.131738 0 0)
(0.131738 0 0)
(0.131738 0 0)
(0.131738 0 0)
(0.131738 0 0)
(0.131738 0 0)
(0.131738 0 0)
(0.131738 0 0)
(0.131738 0 0)
(0.131738 0 0)
(0.131738 0 0)
(0.131738 0 0)
(0.131738 0 0)
(0.131738 0 0)
(0.131738 0 0)
(0.131738 0 0)
(0.131738 0 0)
(0.131738 0 0)
(0.131738 0 0)
(0.131738 0 0)
(0.131738 0 0)
(0.131738 0 0)
(0.131738 0 0)
(0.131738 0 0)
(0.131738 0 0)
(0.131738 0 0)
(0.131738 0 0)
(0.131738 0 0)
(0.131738 0 0)
(0.131738 0 0)
(0.131738 0 0)
(0.131738 0 0)
(0.131738 0 0)
(0.131738 0 0)
(0.131738 0 0)
(0.131739 0 0)
(0.131737 0 0)
(0.131739 0 0)
(0.131737 0 0)
(0.131739 0 0)
(0.131737 0 0)
(0.131739 0 0)
(0.131737 0 0)
(0.131739 0 0)
(0.131737 0 0)
(0.131739 0 0)
(0.131737 0 0)
(0.131739 0 0)
(0.131737 0 0)
(0.131739 0 0)
(0.131737 0 0)
(0.131739 0 0)
(0.131737 0 0)
(0.131739 0 0)
(0.131737 0 0)
(0.131739 0 0)
(0.131737 0 0)
(0.131739 0 0)
(0.131736 0 0)
(0.13174 0 0)
(0.131736 0 0)
(0.13174 0 0)
(0.131736 0 0)
(0.13174 0 0)
(0.131736 0 0)
(0.13174 0 0)
(0.131736 0 0)
(0.13174 0 0)
(0.131736 0 0)
(0.13174 0 0)
(0.131736 0 0)
(0.131741 0 0)
(0.131735 0 0)
(0.131741 0 0)
(0.131735 0 0)
(0.131741 0 0)
(0.131735 0 0)
(0.131741 0 0)
(0.131735 0 0)
(0.131741 0 0)
(0.131734 0 0)
(0.131742 0 0)
(0.131734 0 0)
(0.131742 0 0)
(0.131734 0 0)
(0.131742 0 0)
(0.131733 0 0)
(0.131743 0 0)
(0.131733 0 0)
(0.131743 0 0)
(0.131733 0 0)
(0.131743 0 0)
(0.131732 0 0)
(0.131744 0 0)
(0.131732 0 0)
(0.131744 0 0)
(0.131731 0 0)
(0.131744 0 0)
(0.131731 0 0)
(0.131745 0 0)
(0.131731 0 0)
(0.131745 0 0)
(0.13173 0 0)
(0.131746 0 0)
(0.13173 0 0)
(0.131746 0 0)
(0.131729 0 0)
(0.131747 0 0)
(0.131728 0 0)
(0.131747 0 0)
(0.131728 0 0)
(0.131748 0 0)
(0.131727 0 0)
(0.131748 0 0)
(0.131727 0 0)
(0.131749 0 0)
(0.131726 0 0)
(0.131749 0 0)
(0.131725 0 0)
(0.13175 0 0)
(0.131724 0 0)
(0.131751 0 0)
(0.131724 0 0)
(0.131751 0 0)
(0.131723 0 0)
(0.131752 0 0)
(0.131722 0 0)
(0.131752 0 0)
(0.131721 0 0)
(0.131753 0 0)
(0.131721 0 0)
(0.131754 0 0)
(0.13172 0 0)
(0.131754 0 0)
(0.131719 0 0)
(0.131755 0 0)
(0.131718 0 0)
(0.131756 0 0)
(0.131717 0 0)
(0.131757 0 0)
(0.131716 0 0)
(0.131757 0 0)
(0.131715 0 0)
(0.131758 0 0)
(0.131714 0 0)
(0.131759 0 0)
(0.131713 0 0)
(0.131759 0 0)
(0.131712 0 0)
(0.13176 0 0)
(0.131711 0 0)
(0.131761 0 0)
(0.13171 0 0)
(0.131761 0 0)
(0.131709 0 0)
(0.131762 0 0)
(0.131708 0 0)
(0.131763 0 0)
(0.131707 0 0)
(0.131763 0 0)
(0.131706 0 0)
(0.131764 0 0)
(0.131705 0 0)
(0.131765 0 0)
(0.131704 0 0)
(0.131765 0 0)
(0.131703 0 0)
(0.131766 0 0)
(0.131702 0 0)
(0.131767 0 0)
(0.131701 0 0)
(0.131767 0 0)
(0.1317 0 0)
(0.131768 0 0)
(0.1317 0 0)
(0.131768 0 0)
(0.131699 0 0)
(0.131769 0 0)
(0.131698 0 0)
(0.131769 0 0)
(0.131697 0 0)
(0.13177 0 0)
(0.131697 0 0)
)
;

boundaryField
{
    topWall
    {
        type            empty;
    }
    bottomWall
    {
        type            empty;
    }
    leftAndRight_half1
    {
        type            cyclic;
    }
    leftAndRight_half0
    {
        type            cyclic;
    }
    frontAndBack
    {
        type            empty;
    }
}


// ************************************************************************* //
