/*--------------------------------*- C++ -*----------------------------------*\
  =========                 |
  \\      /  F ield         | OpenFOAM: The Open Source CFD Toolbox
   \\    /   O peration     | Website:  https://openfoam.org
    \\  /    A nd           | Version:  9
     \\/     M anipulation  |
\*---------------------------------------------------------------------------*/
FoamFile
{
    format      ascii;
    class       volVectorField;
    location    "2";
    object      U;
}
// * * * * * * * * * * * * * * * * * * * * * * * * * * * * * * * * * * * * * //

dimensions      [0 1 -1 0 0 0 0];

internalField   nonuniform List<vector> 
1000
(
(0.131755 0 0)
(0.131711 0 0)
(0.131756 0 0)
(0.131709 0 0)
(0.131757 0 0)
(0.131706 0 0)
(0.131758 0 0)
(0.131703 0 0)
(0.131759 0 0)
(0.1317 0 0)
(0.131761 0 0)
(0.131696 0 0)
(0.131762 0 0)
(0.131693 0 0)
(0.131763 0 0)
(0.131689 0 0)
(0.131764 0 0)
(0.131685 0 0)
(0.131764 0 0)
(0.131681 0 0)
(0.131765 0 0)
(0.131676 0 0)
(0.131765 0 0)
(0.131672 0 0)
(0.131766 0 0)
(0.131667 0 0)
(0.131766 0 0)
(0.131662 0 0)
(0.131766 0 0)
(0.131658 0 0)
(0.131766 0 0)
(0.131653 0 0)
(0.131765 0 0)
(0.131648 0 0)
(0.131764 0 0)
(0.131642 0 0)
(0.131763 0 0)
(0.131637 0 0)
(0.131762 0 0)
(0.131632 0 0)
(0.131761 0 0)
(0.131627 0 0)
(0.131759 0 0)
(0.131623 0 0)
(0.131757 0 0)
(0.131618 0 0)
(0.131755 0 0)
(0.131614 0 0)
(0.131753 0 0)
(0.131609 0 0)
(0.131751 0 0)
(0.131606 0 0)
(0.131748 0 0)
(0.131602 0 0)
(0.131746 0 0)
(0.1316 0 0)
(0.131744 0 0)
(0.131598 0 0)
(0.131742 0 0)
(0.131596 0 0)
(0.13174 0 0)
(0.131596 0 0)
(0.131738 0 0)
(0.131596 0 0)
(0.131737 0 0)
(0.131598 0 0)
(0.131737 0 0)
(0.1316 0 0)
(0.131737 0 0)
(0.131604 0 0)
(0.131739 0 0)
(0.13161 0 0)
(0.131741 0 0)
(0.131616 0 0)
(0.131745 0 0)
(0.131625 0 0)
(0.131749 0 0)
(0.131635 0 0)
(0.131756 0 0)
(0.131648 0 0)
(0.131764 0 0)
(0.131662 0 0)
(0.131775 0 0)
(0.131678 0 0)
(0.13179 0 0)
(0.131693 0 0)
(0.13181 0 0)
(0.131705 0 0)
(0.131844 0 0)
(0.131707 0 0)
(0.131897 0 0)
(0.131694 0 0)
(0.131975 0 0)
(0.131675 0 0)
(0.132064 0 0)
(0.13169 0 0)
(0.13213 0 0)
(0.131788 0 0)
(0.132163 0 0)
(0.131963 0 0)
(0.132222 0 0)
(0.132141 0 0)
(0.132331 0 0)
(0.132293 0 0)
(0.132453 0 0)
(0.132419 0 0)
(0.13256 0 0)
(0.132521 0 0)
(0.132643 0 0)
(0.1326 0 0)
(0.132705 0 0)
(0.132661 0 0)
(0.132754 0 0)
(0.132713 0 0)
(0.132796 0 0)
(0.13276 0 0)
(0.132836 0 0)
(0.132807 0 0)
(0.132877 0 0)
(0.132854 0 0)
(0.132919 0 0)
(0.132903 0 0)
(0.132964 0 0)
(0.132954 0 0)
(0.133011 0 0)
(0.133007 0 0)
(0.13306 0 0)
(0.133062 0 0)
(0.133111 0 0)
(0.133118 0 0)
(0.133164 0 0)
(0.133175 0 0)
(0.133219 0 0)
(0.133234 0 0)
(0.133275 0 0)
(0.133294 0 0)
(0.133333 0 0)
(0.133355 0 0)
(0.133391 0 0)
(0.133416 0 0)
(0.13345 0 0)
(0.133478 0 0)
(0.13351 0 0)
(0.13354 0 0)
(0.13357 0 0)
(0.133601 0 0)
(0.133631 0 0)
(0.133663 0 0)
(0.133691 0 0)
(0.133724 0 0)
(0.133751 0 0)
(0.133784 0 0)
(0.13381 0 0)
(0.133844 0 0)
(0.133868 0 0)
(0.133902 0 0)
(0.133925 0 0)
(0.133959 0 0)
(0.133981 0 0)
(0.134014 0 0)
(0.134035 0 0)
(0.134068 0 0)
(0.134087 0 0)
(0.134119 0 0)
(0.134137 0 0)
(0.134169 0 0)
(0.134186 0 0)
(0.134215 0 0)
(0.134231 0 0)
(0.13426 0 0)
(0.134275 0 0)
(0.134302 0 0)
(0.134315 0 0)
(0.13434 0 0)
(0.134352 0 0)
(0.134376 0 0)
(0.134387 0 0)
(0.134408 0 0)
(0.134418 0 0)
(0.134438 0 0)
(0.134445 0 0)
(0.134463 0 0)
(0.134469 0 0)
(0.134485 0 0)
(0.134489 0 0)
(0.134504 0 0)
(0.134505 0 0)
(0.134519 0 0)
(0.134517 0 0)
(0.134531 0 0)
(0.134524 0 0)
(0.134539 0 0)
(0.134528 0 0)
(0.134541 0 0)
(0.134529 0 0)
(0.134538 0 0)
(0.134529 0 0)
(0.134533 0 0)
(0.134526 0 0)
(0.134531 0 0)
(0.134527 0 0)
(0.134532 0 0)
(0.134524 0 0)
(0.134513 0 0)
(0.134471 0 0)
(0.134411 0 0)
(0.134318 0 0)
(0.13422 0 0)
(0.134115 0 0)
(0.134028 0 0)
(0.133951 0 0)
(0.133898 0 0)
(0.133853 0 0)
(0.133825 0 0)
(0.133799 0 0)
(0.133781 0 0)
(0.133762 0 0)
(0.133748 0 0)
(0.133731 0 0)
(0.133717 0 0)
(0.133699 0 0)
(0.133683 0 0)
(0.133664 0 0)
(0.133647 0 0)
(0.133627 0 0)
(0.133608 0 0)
(0.133587 0 0)
(0.133567 0 0)
(0.133544 0 0)
(0.133523 0 0)
(0.1335 0 0)
(0.133477 0 0)
(0.133452 0 0)
(0.133429 0 0)
(0.133403 0 0)
(0.133378 0 0)
(0.133352 0 0)
(0.133327 0 0)
(0.1333 0 0)
(0.133273 0 0)
(0.133246 0 0)
(0.133219 0 0)
(0.133191 0 0)
(0.133163 0 0)
(0.133135 0 0)
(0.133107 0 0)
(0.133078 0 0)
(0.13305 0 0)
(0.133021 0 0)
(0.132993 0 0)
(0.132964 0 0)
(0.132935 0 0)
(0.132907 0 0)
(0.132878 0 0)
(0.13285 0 0)
(0.132822 0 0)
(0.132793 0 0)
(0.132765 0 0)
(0.132737 0 0)
(0.13271 0 0)
(0.132682 0 0)
(0.132655 0 0)
(0.132628 0 0)
(0.132602 0 0)
(0.132576 0 0)
(0.13255 0 0)
(0.132524 0 0)
(0.132499 0 0)
(0.132474 0 0)
(0.13245 0 0)
(0.132426 0 0)
(0.132402 0 0)
(0.132379 0 0)
(0.132356 0 0)
(0.132334 0 0)
(0.132312 0 0)
(0.132291 0 0)
(0.13227 0 0)
(0.13225 0 0)
(0.13223 0 0)
(0.13221 0 0)
(0.132191 0 0)
(0.132173 0 0)
(0.132155 0 0)
(0.132138 0 0)
(0.132121 0 0)
(0.132104 0 0)
(0.132088 0 0)
(0.132073 0 0)
(0.132058 0 0)
(0.132043 0 0)
(0.132029 0 0)
(0.132016 0 0)
(0.132003 0 0)
(0.13199 0 0)
(0.131978 0 0)
(0.131966 0 0)
(0.131955 0 0)
(0.131944 0 0)
(0.131933 0 0)
(0.131923 0 0)
(0.131914 0 0)
(0.131905 0 0)
(0.131896 0 0)
(0.131887 0 0)
(0.131879 0 0)
(0.131871 0 0)
(0.131864 0 0)
(0.131857 0 0)
(0.13185 0 0)
(0.131844 0 0)
(0.131837 0 0)
(0.131832 0 0)
(0.131826 0 0)
(0.131821 0 0)
(0.131816 0 0)
(0.131811 0 0)
(0.131807 0 0)
(0.131802 0 0)
(0.131798 0 0)
(0.131794 0 0)
(0.131791 0 0)
(0.131787 0 0)
(0.131784 0 0)
(0.131781 0 0)
(0.131778 0 0)
(0.131775 0 0)
(0.131773 0 0)
(0.131771 0 0)
(0.131768 0 0)
(0.131766 0 0)
(0.131764 0 0)
(0.131762 0 0)
(0.131761 0 0)
(0.131759 0 0)
(0.131757 0 0)
(0.131756 0 0)
(0.131755 0 0)
(0.131753 0 0)
(0.131752 0 0)
(0.131751 0 0)
(0.13175 0 0)
(0.131749 0 0)
(0.131748 0 0)
(0.131747 0 0)
(0.131747 0 0)
(0.131746 0 0)
(0.131745 0 0)
(0.131745 0 0)
(0.131744 0 0)
(0.131744 0 0)
(0.131743 0 0)
(0.131743 0 0)
(0.131742 0 0)
(0.131742 0 0)
(0.131742 0 0)
(0.131741 0 0)
(0.131741 0 0)
(0.131741 0 0)
(0.131741 0 0)
(0.13174 0 0)
(0.13174 0 0)
(0.13174 0 0)
(0.13174 0 0)
(0.13174 0 0)
(0.131739 0 0)
(0.131739 0 0)
(0.131739 0 0)
(0.131739 0 0)
(0.131739 0 0)
(0.131739 0 0)
(0.131739 0 0)
(0.131739 0 0)
(0.131739 0 0)
(0.131739 0 0)
(0.131739 0 0)
(0.131738 0 0)
(0.131738 0 0)
(0.131738 0 0)
(0.131738 0 0)
(0.131738 0 0)
(0.131738 0 0)
(0.131738 0 0)
(0.131738 0 0)
(0.131738 0 0)
(0.131738 0 0)
(0.131738 0 0)
(0.131738 0 0)
(0.131738 0 0)
(0.131738 0 0)
(0.131738 0 0)
(0.131738 0 0)
(0.131738 0 0)
(0.131738 0 0)
(0.131738 0 0)
(0.131738 0 0)
(0.131738 0 0)
(0.131738 0 0)
(0.131738 0 0)
(0.131738 0 0)
(0.131738 0 0)
(0.131738 0 0)
(0.131738 0 0)
(0.131738 0 0)
(0.131738 0 0)
(0.131738 0 0)
(0.131738 0 0)
(0.131738 0 0)
(0.131738 0 0)
(0.131738 0 0)
(0.131738 0 0)
(0.131738 0 0)
(0.131738 0 0)
(0.131738 0 0)
(0.131738 0 0)
(0.131738 0 0)
(0.131738 0 0)
(0.131738 0 0)
(0.131738 0 0)
(0.131738 0 0)
(0.131738 0 0)
(0.131738 0 0)
(0.131738 0 0)
(0.131738 0 0)
(0.131738 0 0)
(0.131738 0 0)
(0.131738 0 0)
(0.131738 0 0)
(0.131738 0 0)
(0.131738 0 0)
(0.131738 0 0)
(0.131738 0 0)
(0.131738 0 0)
(0.131738 0 0)
(0.131738 0 0)
(0.131738 0 0)
(0.131738 0 0)
(0.131738 0 0)
(0.131738 0 0)
(0.131738 0 0)
(0.131738 0 0)
(0.131738 0 0)
(0.131738 0 0)
(0.131738 0 0)
(0.131738 0 0)
(0.131738 0 0)
(0.131738 0 0)
(0.131738 0 0)
(0.131738 0 0)
(0.131738 0 0)
(0.131738 0 0)
(0.131738 0 0)
(0.131738 0 0)
(0.131738 0 0)
(0.131738 0 0)
(0.131738 0 0)
(0.131738 0 0)
(0.131738 0 0)
(0.131738 0 0)
(0.131738 0 0)
(0.131738 0 0)
(0.131738 0 0)
(0.131738 0 0)
(0.131738 0 0)
(0.131738 0 0)
(0.131738 0 0)
(0.131738 0 0)
(0.131738 0 0)
(0.131738 0 0)
(0.131738 0 0)
(0.131738 0 0)
(0.131738 0 0)
(0.131738 0 0)
(0.131738 0 0)
(0.131738 0 0)
(0.131738 0 0)
(0.131738 0 0)
(0.131738 0 0)
(0.131738 0 0)
(0.131738 0 0)
(0.131738 0 0)
(0.131738 0 0)
(0.131738 0 0)
(0.131738 0 0)
(0.131738 0 0)
(0.131738 0 0)
(0.131738 0 0)
(0.131738 0 0)
(0.131738 0 0)
(0.131738 0 0)
(0.131738 0 0)
(0.131738 0 0)
(0.131738 0 0)
(0.131738 0 0)
(0.131738 0 0)
(0.131738 0 0)
(0.131738 0 0)
(0.131738 0 0)
(0.131738 0 0)
(0.131738 0 0)
(0.131738 0 0)
(0.131738 0 0)
(0.131738 0 0)
(0.131738 0 0)
(0.131738 0 0)
(0.131738 0 0)
(0.131738 0 0)
(0.131738 0 0)
(0.131738 0 0)
(0.131738 0 0)
(0.131738 0 0)
(0.131738 0 0)
(0.131738 0 0)
(0.131738 0 0)
(0.131738 0 0)
(0.131738 0 0)
(0.131738 0 0)
(0.131738 0 0)
(0.131738 0 0)
(0.131738 0 0)
(0.131738 0 0)
(0.131738 0 0)
(0.131738 0 0)
(0.131738 0 0)
(0.131738 0 0)
(0.131738 0 0)
(0.131738 0 0)
(0.131738 0 0)
(0.131738 0 0)
(0.131738 0 0)
(0.131738 0 0)
(0.131738 0 0)
(0.131738 0 0)
(0.131738 0 0)
(0.131738 0 0)
(0.131738 0 0)
(0.131738 0 0)
(0.131738 0 0)
(0.131738 0 0)
(0.131738 0 0)
(0.131738 0 0)
(0.131738 0 0)
(0.131738 0 0)
(0.131738 0 0)
(0.131738 0 0)
(0.131738 0 0)
(0.131738 0 0)
(0.131738 0 0)
(0.131738 0 0)
(0.131738 0 0)
(0.131738 0 0)
(0.131738 0 0)
(0.131738 0 0)
(0.131738 0 0)
(0.131738 0 0)
(0.131738 0 0)
(0.131738 0 0)
(0.131738 0 0)
(0.131738 0 0)
(0.131738 0 0)
(0.131738 0 0)
(0.131738 0 0)
(0.131738 0 0)
(0.131738 0 0)
(0.131738 0 0)
(0.131738 0 0)
(0.131738 0 0)
(0.131738 0 0)
(0.131738 0 0)
(0.131738 0 0)
(0.131738 0 0)
(0.131738 0 0)
(0.131738 0 0)
(0.131738 0 0)
(0.131738 0 0)
(0.131738 0 0)
(0.131738 0 0)
(0.131738 0 0)
(0.131738 0 0)
(0.131738 0 0)
(0.131738 0 0)
(0.131738 0 0)
(0.131738 0 0)
(0.131738 0 0)
(0.131738 0 0)
(0.131738 0 0)
(0.131738 0 0)
(0.131738 0 0)
(0.131738 0 0)
(0.131738 0 0)
(0.131738 0 0)
(0.131738 0 0)
(0.131738 0 0)
(0.131738 0 0)
(0.131738 0 0)
(0.131738 0 0)
(0.131738 0 0)
(0.131738 0 0)
(0.131738 0 0)
(0.131738 0 0)
(0.131738 0 0)
(0.131738 0 0)
(0.131738 0 0)
(0.131738 0 0)
(0.131738 0 0)
(0.131738 0 0)
(0.131738 0 0)
(0.131738 0 0)
(0.131738 0 0)
(0.131738 0 0)
(0.131738 0 0)
(0.131738 0 0)
(0.131738 0 0)
(0.131738 0 0)
(0.131738 0 0)
(0.131738 0 0)
(0.131738 0 0)
(0.131738 0 0)
(0.131738 0 0)
(0.131738 0 0)
(0.131738 0 0)
(0.131738 0 0)
(0.131738 0 0)
(0.131738 0 0)
(0.131738 0 0)
(0.131738 0 0)
(0.131738 0 0)
(0.131738 0 0)
(0.131738 0 0)
(0.131738 0 0)
(0.131738 0 0)
(0.131738 0 0)
(0.131738 0 0)
(0.131738 0 0)
(0.131738 0 0)
(0.131738 0 0)
(0.131738 0 0)
(0.131738 0 0)
(0.131738 0 0)
(0.131738 0 0)
(0.131738 0 0)
(0.131738 0 0)
(0.131738 0 0)
(0.131738 0 0)
(0.131738 0 0)
(0.131738 0 0)
(0.131738 0 0)
(0.131738 0 0)
(0.131738 0 0)
(0.131738 0 0)
(0.131738 0 0)
(0.131738 0 0)
(0.131738 0 0)
(0.131738 0 0)
(0.131738 0 0)
(0.131738 0 0)
(0.131738 0 0)
(0.131738 0 0)
(0.131738 0 0)
(0.131738 0 0)
(0.131738 0 0)
(0.131738 0 0)
(0.131738 0 0)
(0.131738 0 0)
(0.131738 0 0)
(0.131738 0 0)
(0.131738 0 0)
(0.131738 0 0)
(0.131738 0 0)
(0.131738 0 0)
(0.131738 0 0)
(0.131738 0 0)
(0.131738 0 0)
(0.131738 0 0)
(0.131738 0 0)
(0.131738 0 0)
(0.131738 0 0)
(0.131738 0 0)
(0.131738 0 0)
(0.131738 0 0)
(0.131738 0 0)
(0.131738 0 0)
(0.131738 0 0)
(0.131738 0 0)
(0.131738 0 0)
(0.131738 0 0)
(0.131738 0 0)
(0.131738 0 0)
(0.131738 0 0)
(0.131738 0 0)
(0.131738 0 0)
(0.131738 0 0)
(0.131738 0 0)
(0.131738 0 0)
(0.131738 0 0)
(0.131738 0 0)
(0.131738 0 0)
(0.131738 0 0)
(0.131738 0 0)
(0.131738 0 0)
(0.131738 0 0)
(0.131738 0 0)
(0.131738 0 0)
(0.131738 0 0)
(0.131738 0 0)
(0.131738 0 0)
(0.131738 0 0)
(0.131738 0 0)
(0.131738 0 0)
(0.131738 0 0)
(0.131738 0 0)
(0.131738 0 0)
(0.131738 0 0)
(0.131738 0 0)
(0.131738 0 0)
(0.131738 0 0)
(0.131738 0 0)
(0.131738 0 0)
(0.131738 0 0)
(0.131738 0 0)
(0.131738 0 0)
(0.131738 0 0)
(0.131738 0 0)
(0.131738 0 0)
(0.131738 0 0)
(0.131738 0 0)
(0.131738 0 0)
(0.131738 0 0)
(0.131738 0 0)
(0.131738 0 0)
(0.131738 0 0)
(0.131738 0 0)
(0.131738 0 0)
(0.131738 0 0)
(0.131738 0 0)
(0.131738 0 0)
(0.131738 0 0)
(0.131738 0 0)
(0.131738 0 0)
(0.131738 0 0)
(0.131738 0 0)
(0.131738 0 0)
(0.131738 0 0)
(0.131738 0 0)
(0.131738 0 0)
(0.131738 0 0)
(0.131738 0 0)
(0.131738 0 0)
(0.131738 0 0)
(0.131738 0 0)
(0.131738 0 0)
(0.131738 0 0)
(0.131738 0 0)
(0.131738 0 0)
(0.131738 0 0)
(0.131738 0 0)
(0.131738 0 0)
(0.131738 0 0)
(0.131738 0 0)
(0.131738 0 0)
(0.131738 0 0)
(0.131738 0 0)
(0.131738 0 0)
(0.131738 0 0)
(0.131738 0 0)
(0.131738 0 0)
(0.131738 0 0)
(0.131738 0 0)
(0.131738 0 0)
(0.131738 0 0)
(0.131738 0 0)
(0.131738 0 0)
(0.131738 0 0)
(0.131738 0 0)
(0.131738 0 0)
(0.131738 0 0)
(0.131738 0 0)
(0.131738 0 0)
(0.131738 0 0)
(0.131738 0 0)
(0.131738 0 0)
(0.131738 0 0)
(0.131738 0 0)
(0.131738 0 0)
(0.131738 0 0)
(0.131738 0 0)
(0.131738 0 0)
(0.131738 0 0)
(0.131738 0 0)
(0.131738 0 0)
(0.131738 0 0)
(0.131738 0 0)
(0.131738 0 0)
(0.131738 0 0)
(0.131738 0 0)
(0.131738 0 0)
(0.131738 0 0)
(0.131738 0 0)
(0.131738 0 0)
(0.131738 0 0)
(0.131738 0 0)
(0.131738 0 0)
(0.131738 0 0)
(0.131738 0 0)
(0.131738 0 0)
(0.131738 0 0)
(0.131738 0 0)
(0.131738 0 0)
(0.131738 0 0)
(0.131738 0 0)
(0.131738 0 0)
(0.131738 0 0)
(0.131738 0 0)
(0.131738 0 0)
(0.131738 0 0)
(0.131738 0 0)
(0.131738 0 0)
(0.131738 0 0)
(0.131738 0 0)
(0.131738 0 0)
(0.131738 0 0)
(0.131738 0 0)
(0.131738 0 0)
(0.131738 0 0)
(0.131738 0 0)
(0.131738 0 0)
(0.131738 0 0)
(0.131738 0 0)
(0.131738 0 0)
(0.131738 0 0)
(0.131738 0 0)
(0.131738 0 0)
(0.131738 0 0)
(0.131738 0 0)
(0.131738 0 0)
(0.131738 0 0)
(0.131738 0 0)
(0.131738 0 0)
(0.131738 0 0)
(0.131738 0 0)
(0.131738 0 0)
(0.131738 0 0)
(0.131738 0 0)
(0.131738 0 0)
(0.131738 0 0)
(0.131738 0 0)
(0.131738 0 0)
(0.131738 0 0)
(0.131738 0 0)
(0.131738 0 0)
(0.131738 0 0)
(0.131738 0 0)
(0.131738 0 0)
(0.131738 0 0)
(0.131738 0 0)
(0.131738 0 0)
(0.131738 0 0)
(0.131738 0 0)
(0.131738 0 0)
(0.131738 0 0)
(0.131738 0 0)
(0.131738 0 0)
(0.131738 0 0)
(0.131738 0 0)
(0.131738 0 0)
(0.131738 0 0)
(0.131738 0 0)
(0.131738 0 0)
(0.131738 0 0)
(0.131738 0 0)
(0.131738 0 0)
(0.131738 0 0)
(0.131738 0 0)
(0.131738 0 0)
(0.131738 0 0)
(0.131738 0 0)
(0.131738 0 0)
(0.131738 0 0)
(0.131738 0 0)
(0.131738 0 0)
(0.131738 0 0)
(0.131738 0 0)
(0.131738 0 0)
(0.131738 0 0)
(0.131738 0 0)
(0.131738 0 0)
(0.131738 0 0)
(0.131738 0 0)
(0.131738 0 0)
(0.131738 0 0)
(0.131738 0 0)
(0.131738 0 0)
(0.131738 0 0)
(0.131738 0 0)
(0.131738 0 0)
(0.131738 0 0)
(0.131738 0 0)
(0.131738 0 0)
(0.131738 0 0)
(0.131738 0 0)
(0.131738 0 0)
(0.131738 0 0)
(0.131738 0 0)
(0.131738 0 0)
(0.131738 0 0)
(0.131738 0 0)
(0.131738 0 0)
(0.131738 0 0)
(0.131738 0 0)
(0.131738 0 0)
(0.131738 0 0)
(0.131738 0 0)
(0.131738 0 0)
(0.131738 0 0)
(0.131738 0 0)
(0.131738 0 0)
(0.131738 0 0)
(0.131738 0 0)
(0.131738 0 0)
(0.131738 0 0)
(0.131738 0 0)
(0.131738 0 0)
(0.131738 0 0)
(0.131738 0 0)
(0.131738 0 0)
(0.131738 0 0)
(0.131738 0 0)
(0.131738 0 0)
(0.131738 0 0)
(0.131738 0 0)
(0.131738 0 0)
(0.131738 0 0)
(0.131738 0 0)
(0.131738 0 0)
(0.131738 0 0)
(0.131738 0 0)
(0.131738 0 0)
(0.131738 0 0)
(0.131738 0 0)
(0.131738 0 0)
(0.131738 0 0)
(0.131738 0 0)
(0.131738 0 0)
(0.131737 0 0)
(0.131739 0 0)
(0.131737 0 0)
(0.131739 0 0)
(0.131737 0 0)
(0.131739 0 0)
(0.131737 0 0)
(0.131739 0 0)
(0.131737 0 0)
(0.131739 0 0)
(0.131737 0 0)
(0.131739 0 0)
(0.131737 0 0)
(0.131739 0 0)
(0.131736 0 0)
(0.13174 0 0)
(0.131736 0 0)
(0.13174 0 0)
(0.131736 0 0)
(0.13174 0 0)
(0.131735 0 0)
(0.131741 0 0)
(0.131735 0 0)
(0.131741 0 0)
(0.131734 0 0)
(0.131741 0 0)
(0.131734 0 0)
(0.131742 0 0)
(0.131733 0 0)
(0.131742 0 0)
(0.131733 0 0)
(0.131743 0 0)
(0.131732 0 0)
(0.131743 0 0)
(0.131731 0 0)
(0.131744 0 0)
(0.13173 0 0)
(0.131745 0 0)
(0.131729 0 0)
(0.131746 0 0)
(0.131728 0 0)
(0.131746 0 0)
(0.131727 0 0)
(0.131747 0 0)
(0.131725 0 0)
(0.131748 0 0)
(0.131724 0 0)
(0.131749 0 0)
(0.131722 0 0)
(0.13175 0 0)
(0.13172 0 0)
(0.131751 0 0)
(0.131718 0 0)
(0.131752 0 0)
(0.131716 0 0)
(0.131754 0 0)
(0.131714 0 0)
)
;

boundaryField
{
    topWall
    {
        type            empty;
    }
    bottomWall
    {
        type            empty;
    }
    leftAndRight_half1
    {
        type            cyclic;
    }
    leftAndRight_half0
    {
        type            cyclic;
    }
    frontAndBack
    {
        type            empty;
    }
}


// ************************************************************************* //
