/*--------------------------------*- C++ -*----------------------------------*\
  =========                 |
  \\      /  F ield         | OpenFOAM: The Open Source CFD Toolbox
   \\    /   O peration     | Website:  https://openfoam.org
    \\  /    A nd           | Version:  9
     \\/     M anipulation  |
\*---------------------------------------------------------------------------*/
FoamFile
{
    format      ascii;
    class       volScalarField;
    location    "0.95";
    object      f_0;
}
// * * * * * * * * * * * * * * * * * * * * * * * * * * * * * * * * * * * * * //

dimensions      [1 -3 0 0 0 0 0];

internalField   nonuniform List<scalar> 
1000
(
666.668
666.668
666.668
666.668
666.667
666.667
666.667
666.667
666.667
666.667
666.667
666.667
666.667
666.667
666.667
666.667
666.667
666.667
666.667
666.667
666.667
666.667
666.667
666.667
666.667
666.667
666.667
666.667
666.667
666.667
666.667
666.667
666.667
666.667
666.667
666.667
666.667
666.667
666.667
666.667
666.667
666.667
666.667
666.667
666.667
666.667
666.667
666.667
666.667
666.667
666.667
666.667
666.667
666.667
666.667
666.667
666.667
666.667
666.667
666.667
666.667
666.667
666.667
666.667
666.667
666.667
666.667
666.667
666.667
666.667
666.667
666.667
666.667
666.667
666.667
666.667
666.667
666.667
666.667
666.667
666.667
666.667
666.667
666.667
666.667
666.667
666.667
666.667
666.667
666.667
666.667
666.667
666.667
666.667
666.667
666.667
666.667
666.667
666.667
666.667
666.667
666.667
666.667
666.667
666.667
666.667
666.667
666.667
666.667
666.667
666.667
666.667
666.667
666.667
666.667
666.667
666.667
666.667
666.667
666.667
666.667
666.667
666.667
666.667
666.667
666.667
666.667
666.667
666.667
666.667
666.667
666.667
666.667
666.667
666.667
666.667
666.667
666.667
666.667
666.667
666.667
666.667
666.667
666.666
666.666
666.666
666.666
666.666
666.666
666.666
666.666
666.666
666.666
666.666
666.666
666.666
666.666
666.666
666.666
666.666
666.666
666.666
666.666
666.666
666.666
666.666
666.666
666.666
666.666
666.666
666.666
666.666
666.666
666.666
666.666
666.666
666.666
666.666
666.666
666.666
666.666
666.666
666.666
666.666
666.666
666.666
666.666
666.666
666.666
666.666
666.666
666.666
666.666
666.666
666.666
666.666
666.666
666.666
666.666
666.666
666.666
666.666
666.666
666.666
666.665
666.665
666.665
666.665
666.665
666.665
666.665
666.665
666.665
666.665
666.665
666.665
666.665
666.665
666.665
666.665
666.665
666.665
666.665
666.665
666.665
666.665
666.665
666.664
666.664
666.664
666.664
666.664
666.664
666.664
666.664
666.664
666.664
666.664
666.664
666.664
666.664
666.664
666.663
666.663
666.663
666.663
666.663
666.663
666.663
666.663
666.663
666.663
666.663
666.663
666.662
666.662
666.662
666.662
666.662
666.662
666.662
666.662
666.662
666.662
666.661
666.661
666.661
666.661
666.661
666.661
666.661
666.661
666.66
666.66
666.66
666.66
666.66
666.66
666.66
666.66
666.659
666.659
666.659
666.659
666.659
666.659
666.658
666.658
666.658
666.658
666.658
666.658
666.658
666.657
666.657
666.657
666.657
666.657
666.656
666.656
666.656
666.656
666.656
666.656
666.655
666.655
666.655
666.655
666.655
666.654
666.654
666.654
666.654
666.654
666.653
666.653
666.653
666.653
666.653
666.652
666.652
666.652
666.652
666.651
666.651
666.651
666.651
666.651
666.65
666.65
666.65
666.65
666.649
666.649
666.649
666.649
666.648
666.648
666.648
666.648
666.647
666.647
666.647
666.647
666.646
666.646
666.646
666.646
666.645
666.645
666.645
666.644
666.644
666.644
666.644
666.643
666.643
666.643
666.643
666.642
666.642
666.642
666.641
666.641
666.641
666.641
666.64
666.64
666.64
666.639
666.639
666.639
666.639
666.638
666.638
666.638
666.637
666.637
666.637
666.637
666.636
666.636
666.636
666.635
666.635
666.635
666.635
666.634
666.634
666.634
666.633
666.633
666.633
666.632
666.632
666.632
666.632
666.631
666.631
666.631
666.63
666.63
666.63
666.629
666.629
666.629
666.629
666.628
666.628
666.628
666.627
666.627
666.627
666.627
666.626
666.626
666.626
666.625
666.625
666.625
666.624
666.624
666.624
666.624
666.623
666.623
666.623
666.622
666.622
666.622
666.622
666.621
666.621
666.621
666.62
666.62
666.62
666.62
666.619
666.619
666.619
666.619
666.618
666.618
666.618
666.617
666.617
666.617
666.617
666.616
666.616
666.616
666.616
666.615
666.615
666.615
666.614
666.614
666.614
666.614
666.613
666.613
666.613
666.613
666.612
666.612
666.612
666.612
666.611
666.611
666.611
666.611
666.61
666.61
666.61
666.61
666.609
666.609
666.609
666.609
666.609
666.608
666.608
666.608
666.608
666.607
666.607
666.607
666.607
666.606
666.606
666.606
666.606
666.606
666.605
666.605
666.605
666.605
666.605
666.604
666.604
666.604
666.604
666.603
666.603
666.603
666.603
666.603
666.602
666.602
666.602
666.602
666.602
666.601
666.601
666.601
666.601
666.601
666.601
666.6
666.6
666.6
666.6
666.6
666.599
666.599
666.599
666.599
666.599
666.599
666.598
666.598
666.598
666.598
666.598
666.598
666.597
666.597
666.597
666.597
666.597
666.597
666.596
666.596
666.596
666.596
666.596
666.596
666.595
666.595
666.595
666.595
666.595
666.595
666.595
666.594
666.594
666.594
666.594
666.594
666.594
666.594
666.593
666.593
666.593
666.593
666.593
666.593
666.593
666.592
666.592
666.592
666.592
666.592
666.592
666.592
666.592
666.591
666.591
666.591
666.591
666.591
666.591
666.591
666.591
666.59
666.59
666.59
666.59
666.59
666.59
666.59
666.59
666.59
666.59
666.589
666.589
666.589
666.589
666.589
666.589
666.589
666.589
666.589
666.589
666.588
666.588
666.588
666.588
666.588
666.588
666.588
666.588
666.588
666.588
666.588
666.587
666.587
666.587
666.587
666.587
666.587
666.587
666.587
666.587
666.587
666.587
666.587
666.587
666.586
666.586
666.586
666.586
666.586
666.586
666.586
666.586
666.586
666.586
666.586
666.586
666.586
666.586
666.586
666.586
666.586
666.586
666.585
666.585
666.585
666.585
666.585
666.585
666.585
666.585
666.585
666.585
666.585
666.585
666.585
666.585
666.585
666.585
666.585
666.585
666.585
666.585
666.585
666.585
666.585
666.585
666.585
666.585
666.585
666.585
666.585
666.585
666.585
666.585
666.585
666.585
666.585
666.585
666.585
666.585
666.585
666.586
666.586
666.586
666.586
666.586
666.586
666.586
666.586
666.586
666.586
666.586
666.586
666.587
666.587
666.587
666.587
666.587
666.587
666.588
666.588
666.588
666.588
666.588
666.588
666.589
666.589
666.589
666.589
666.59
666.59
666.59
666.591
666.591
666.591
666.592
666.592
666.592
666.593
666.593
666.594
666.594
666.594
666.595
666.595
666.596
666.596
666.597
666.598
666.598
666.599
666.599
666.6
666.601
666.602
666.602
666.603
666.604
666.605
666.606
666.607
666.608
666.609
666.61
666.611
666.612
666.613
666.614
666.615
666.617
666.618
666.619
666.621
666.622
666.624
666.625
666.627
666.629
666.631
666.632
666.634
666.636
666.638
666.641
666.643
666.645
666.647
666.65
666.652
666.655
666.658
666.66
666.663
666.666
666.669
666.673
666.676
666.679
666.683
666.686
666.69
666.694
666.698
666.702
666.706
666.71
666.714
666.719
666.724
666.728
666.733
666.738
666.743
666.748
666.754
666.759
666.764
666.77
666.776
666.782
666.788
666.794
666.8
666.806
666.812
666.818
666.825
666.831
666.838
666.844
666.851
666.857
666.864
666.87
666.877
666.883
666.89
666.896
666.903
666.909
666.915
666.921
666.927
666.933
666.939
666.944
666.949
666.955
666.959
666.964
666.969
666.973
666.977
666.98
666.984
666.987
666.99
666.992
666.994
666.996
666.998
666.999
667
667
667.001
667.001
667
666.999
666.998
666.997
666.995
666.993
666.991
666.988
666.985
666.982
666.978
666.975
666.971
666.967
666.962
666.958
666.953
666.948
666.944
666.938
666.933
666.928
666.922
666.917
666.911
666.906
666.9
666.895
666.889
666.883
666.878
666.872
666.866
666.861
666.855
666.85
666.844
666.839
666.834
666.828
666.823
666.818
666.813
666.808
666.804
666.799
666.794
666.79
666.786
666.781
666.777
666.773
666.769
666.766
666.762
666.758
666.755
666.751
666.748
666.745
666.742
666.739
666.736
666.733
666.731
666.728
666.725
666.723
666.721
666.718
666.716
666.714
666.712
666.71
666.708
666.707
666.705
666.703
666.702
666.7
666.699
666.697
666.696
666.695
666.693
666.692
666.691
666.69
666.689
666.688
666.687
666.686
666.685
666.684
666.683
666.683
666.682
666.681
666.681
666.68
666.679
666.679
666.678
666.678
666.677
666.677
666.676
666.676
666.675
666.675
666.674
666.674
666.674
666.673
666.673
666.673
666.672
666.672
666.672
666.672
666.671
666.671
666.671
666.671
666.67
666.67
666.67
666.67
666.67
666.67
666.669
666.669
666.669
666.669
666.669
666.669
666.669
666.669
666.668
666.668
666.668
666.668
666.668
666.668
666.668
666.668
666.668
666.668
666.668
)
;

boundaryField
{
    topWall
    {
        type            empty;
    }
    bottomWall
    {
        type            empty;
    }
    leftAndRight_half1
    {
        type            cyclic;
    }
    leftAndRight_half0
    {
        type            cyclic;
    }
    frontAndBack
    {
        type            empty;
    }
}


// ************************************************************************* //
