/*--------------------------------*- C++ -*----------------------------------*\
  =========                 |
  \\      /  F ield         | OpenFOAM: The Open Source CFD Toolbox
   \\    /   O peration     | Website:  https://openfoam.org
    \\  /    A nd           | Version:  9
     \\/     M anipulation  |
\*---------------------------------------------------------------------------*/
FoamFile
{
    format      ascii;
    class       volScalarField;
    location    "0.95";
    object      f_1;
}
// * * * * * * * * * * * * * * * * * * * * * * * * * * * * * * * * * * * * * //

dimensions      [1 -3 0 0 0 0 0];

internalField   nonuniform List<scalar> 
1000
(
168.891
168.89
168.89
168.889
168.889
168.889
168.888
168.888
168.887
168.887
168.887
168.886
168.886
168.886
168.886
168.885
168.885
168.885
168.885
168.885
168.884
168.884
168.884
168.884
168.884
168.884
168.883
168.883
168.883
168.883
168.883
168.883
168.883
168.883
168.883
168.882
168.882
168.882
168.882
168.882
168.882
168.882
168.882
168.882
168.882
168.882
168.882
168.882
168.882
168.882
168.882
168.882
168.882
168.882
168.882
168.882
168.882
168.882
168.882
168.882
168.882
168.882
168.882
168.881
168.881
168.881
168.881
168.881
168.881
168.881
168.881
168.881
168.881
168.881
168.881
168.881
168.881
168.881
168.881
168.881
168.881
168.881
168.881
168.881
168.881
168.881
168.881
168.881
168.881
168.881
168.881
168.881
168.881
168.881
168.882
168.882
168.882
168.882
168.882
168.882
168.882
168.882
168.882
168.882
168.882
168.882
168.882
168.882
168.882
168.882
168.882
168.882
168.882
168.882
168.882
168.882
168.882
168.882
168.882
168.882
168.882
168.882
168.882
168.882
168.882
168.882
168.882
168.882
168.882
168.882
168.882
168.883
168.883
168.883
168.883
168.883
168.883
168.883
168.883
168.883
168.883
168.883
168.883
168.883
168.883
168.883
168.884
168.884
168.884
168.884
168.884
168.884
168.884
168.884
168.884
168.885
168.885
168.885
168.885
168.885
168.885
168.885
168.886
168.886
168.886
168.886
168.886
168.886
168.887
168.887
168.887
168.887
168.887
168.888
168.888
168.888
168.888
168.889
168.889
168.889
168.889
168.89
168.89
168.89
168.891
168.891
168.891
168.892
168.892
168.892
168.893
168.893
168.893
168.894
168.894
168.895
168.895
168.896
168.896
168.897
168.897
168.898
168.898
168.899
168.899
168.9
168.901
168.901
168.902
168.902
168.903
168.904
168.905
168.905
168.906
168.907
168.908
168.908
168.909
168.91
168.911
168.912
168.913
168.914
168.915
168.916
168.917
168.918
168.919
168.92
168.921
168.923
168.924
168.925
168.926
168.928
168.929
168.93
168.932
168.933
168.935
168.936
168.938
168.939
168.941
168.943
168.944
168.946
168.948
168.95
168.952
168.954
168.955
168.958
168.96
168.962
168.964
168.966
168.968
168.971
168.973
168.975
168.978
168.98
168.983
168.986
168.988
168.991
168.994
168.997
168.999
169.002
169.006
169.009
169.012
169.015
169.018
169.022
169.025
169.029
169.032
169.036
169.04
169.043
169.047
169.051
169.055
169.059
169.063
169.068
169.072
169.076
169.081
169.085
169.09
169.095
169.1
169.105
169.11
169.115
169.12
169.125
169.13
169.136
169.141
169.147
169.153
169.159
169.165
169.171
169.177
169.183
169.189
169.196
169.202
169.209
169.216
169.223
169.23
169.237
169.244
169.251
169.258
169.266
169.274
169.281
169.289
169.297
169.305
169.314
169.322
169.33
169.339
169.348
169.356
169.365
169.374
169.384
169.393
169.402
169.412
169.422
169.432
169.442
169.452
169.462
169.472
169.483
169.493
169.504
169.515
169.526
169.537
169.548
169.56
169.572
169.583
169.595
169.607
169.619
169.632
169.644
169.656
169.669
169.682
169.695
169.708
169.721
169.735
169.749
169.762
169.776
169.79
169.804
169.819
169.833
169.848
169.862
169.877
169.892
169.908
169.923
169.939
169.954
169.97
169.986
170.002
170.018
170.035
170.051
170.068
170.085
170.102
170.119
170.137
170.154
170.172
170.19
170.207
170.226
170.244
170.262
170.281
170.3
170.318
170.338
170.357
170.376
170.396
170.415
170.435
170.455
170.475
170.495
170.516
170.536
170.557
170.578
170.599
170.62
170.641
170.663
170.685
170.706
170.728
170.75
170.773
170.795
170.818
170.84
170.863
170.886
170.909
170.933
170.956
170.98
171.003
171.027
171.051
171.075
171.1
171.124
171.149
171.174
171.198
171.223
171.249
171.274
171.299
171.325
171.351
171.377
171.403
171.429
171.455
171.482
171.508
171.535
171.562
171.589
171.616
171.644
171.671
171.699
171.726
171.754
171.782
171.81
171.839
171.867
171.895
171.924
171.953
171.982
172.011
172.04
172.069
172.099
172.128
172.158
172.188
172.218
172.248
172.278
172.308
172.339
172.369
172.4
172.431
172.462
172.493
172.524
172.555
172.587
172.618
172.65
172.682
172.714
172.746
172.778
172.81
172.842
172.875
172.908
172.94
172.973
173.006
173.039
173.072
173.105
173.139
173.172
173.206
173.24
173.273
173.307
173.341
173.376
173.41
173.444
173.479
173.513
173.548
173.583
173.617
173.652
173.688
173.723
173.758
173.793
173.829
173.864
173.9
173.936
173.972
174.008
174.044
174.08
174.116
174.152
174.189
174.225
174.262
174.299
174.336
174.373
174.41
174.447
174.484
174.521
174.558
174.596
174.633
174.671
174.709
174.746
174.784
174.822
174.86
174.898
174.937
174.975
175.013
175.052
175.09
175.129
175.168
175.206
175.245
175.284
175.323
175.362
175.401
175.441
175.48
175.519
175.559
175.598
175.638
175.678
175.717
175.757
175.797
175.837
175.877
175.917
175.958
175.998
176.038
176.079
176.119
176.16
176.2
176.241
176.282
176.323
176.363
176.404
176.445
176.486
176.528
176.569
176.61
176.651
176.693
176.734
176.776
176.817
176.859
176.901
176.942
176.984
177.026
177.068
177.11
177.152
177.194
177.236
177.278
177.321
177.363
177.405
177.448
177.49
177.533
177.575
177.618
177.661
177.703
177.746
177.789
177.832
177.875
177.918
177.961
178.004
178.047
178.09
178.133
178.176
178.22
178.263
178.306
178.35
178.393
178.436
178.48
178.524
178.567
178.611
178.654
178.698
178.742
178.785
178.829
178.873
178.917
178.961
179.005
179.048
179.092
179.136
179.18
179.224
179.268
179.312
179.356
179.4
179.444
179.489
179.533
179.577
179.621
179.665
179.709
179.753
179.797
179.842
179.886
179.93
179.974
180.018
180.062
180.106
180.15
180.195
180.239
180.283
180.327
180.371
180.415
180.459
180.503
180.546
180.59
180.634
180.678
180.722
180.765
180.809
180.852
180.896
180.939
180.983
181.026
181.069
181.112
181.155
181.198
181.241
181.284
181.327
181.369
181.412
181.454
181.496
181.538
181.58
181.622
181.663
181.705
181.746
181.787
181.828
181.869
181.909
181.949
181.99
182.029
182.069
182.108
182.147
182.186
182.225
182.263
182.301
182.338
182.376
182.413
182.449
182.485
182.521
182.556
182.591
182.626
182.66
182.693
182.726
182.759
182.791
182.822
182.853
182.883
182.913
182.942
182.97
182.998
183.024
183.05
183.076
183.1
183.124
183.146
183.168
183.189
183.209
183.227
183.245
183.262
183.277
183.292
183.305
183.317
183.327
183.336
183.344
183.351
183.355
183.359
183.36
183.36
183.359
183.355
183.35
183.343
183.334
183.323
183.31
183.295
183.278
183.258
183.236
183.212
183.186
183.157
183.125
183.091
183.054
183.015
182.972
182.927
182.879
182.828
182.774
182.717
182.656
182.593
182.526
182.456
182.383
182.307
182.227
182.143
182.056
181.966
181.872
181.775
181.674
181.569
181.461
181.35
181.235
181.117
180.995
180.869
180.741
180.609
180.474
180.335
180.194
180.05
179.902
179.752
179.599
179.443
179.285
179.125
178.962
178.797
178.631
178.462
178.292
178.12
177.948
177.773
177.598
177.423
177.246
177.069
176.892
176.715
176.538
176.361
176.185
176.009
175.834
175.66
175.487
175.315
175.145
174.976
174.809
174.644
174.481
174.32
174.161
174.004
173.85
173.699
173.55
173.403
173.259
173.118
172.98
172.845
172.713
172.584
172.457
172.334
172.213
172.096
171.982
171.87
171.762
171.656
171.554
171.455
171.358
171.264
171.173
171.085
171
170.917
170.837
170.76
170.685
170.613
170.543
170.475
170.41
170.347
170.287
170.228
170.172
170.118
170.066
170.016
169.967
169.921
169.876
169.833
169.792
169.752
169.714
169.677
169.642
169.608
169.576
169.545
169.515
169.487
169.459
169.433
169.408
169.384
169.361
169.339
169.318
169.298
169.278
169.26
169.242
169.225
169.209
169.194
169.179
169.165
169.151
169.138
169.126
169.114
169.103
169.092
169.082
169.073
169.063
169.054
169.046
169.038
169.03
169.023
169.016
169.009
169.003
168.997
168.991
168.986
168.98
168.975
168.971
168.966
168.962
168.958
168.954
168.95
168.947
168.943
168.94
168.937
168.934
168.932
168.929
168.927
168.924
168.922
168.92
168.918
168.916
168.914
168.912
168.911
168.909
168.908
168.906
168.905
168.904
168.903
168.901
168.9
168.899
168.898
168.897
168.897
168.896
168.895
168.894
168.893
168.893
168.892
168.892
)
;

boundaryField
{
    topWall
    {
        type            empty;
    }
    bottomWall
    {
        type            empty;
    }
    leftAndRight_half1
    {
        type            cyclic;
    }
    leftAndRight_half0
    {
        type            cyclic;
    }
    frontAndBack
    {
        type            empty;
    }
}


// ************************************************************************* //
