/*--------------------------------*- C++ -*----------------------------------*\
  =========                 |
  \\      /  F ield         | OpenFOAM: The Open Source CFD Toolbox
   \\    /   O peration     | Website:  https://openfoam.org
    \\  /    A nd           | Version:  9
     \\/     M anipulation  |
\*---------------------------------------------------------------------------*/
FoamFile
{
    format      ascii;
    class       volScalarField;
    location    "0.95";
    object      f_2;
}
// * * * * * * * * * * * * * * * * * * * * * * * * * * * * * * * * * * * * * //

dimensions      [1 -3 0 0 0 0 0];

internalField   nonuniform List<scalar> 
1000
(
164.473
164.473
164.474
164.474
164.475
164.475
164.475
164.476
164.476
164.476
164.477
164.477
164.477
164.477
164.477
164.478
164.478
164.478
164.478
164.478
164.479
164.479
164.479
164.479
164.479
164.479
164.479
164.479
164.48
164.48
164.48
164.48
164.48
164.48
164.48
164.48
164.48
164.48
164.48
164.48
164.48
164.48
164.48
164.48
164.481
164.481
164.481
164.481
164.481
164.481
164.481
164.481
164.481
164.481
164.481
164.481
164.481
164.481
164.481
164.481
164.481
164.481
164.481
164.481
164.481
164.481
164.481
164.481
164.481
164.481
164.481
164.481
164.481
164.481
164.481
164.481
164.481
164.481
164.481
164.481
164.481
164.481
164.481
164.481
164.481
164.481
164.481
164.481
164.481
164.481
164.481
164.481
164.481
164.481
164.481
164.481
164.481
164.481
164.481
164.481
164.481
164.481
164.481
164.481
164.481
164.481
164.481
164.481
164.481
164.481
164.481
164.481
164.481
164.48
164.48
164.48
164.48
164.48
164.48
164.48
164.48
164.48
164.48
164.48
164.48
164.48
164.48
164.48
164.48
164.48
164.48
164.48
164.48
164.48
164.48
164.48
164.479
164.479
164.479
164.479
164.479
164.479
164.479
164.479
164.479
164.479
164.479
164.479
164.478
164.478
164.478
164.478
164.478
164.478
164.478
164.478
164.477
164.477
164.477
164.477
164.477
164.477
164.477
164.476
164.476
164.476
164.476
164.476
164.475
164.475
164.475
164.475
164.475
164.474
164.474
164.474
164.474
164.473
164.473
164.473
164.472
164.472
164.472
164.472
164.471
164.471
164.47
164.47
164.47
164.469
164.469
164.469
164.468
164.468
164.467
164.467
164.466
164.466
164.465
164.465
164.464
164.464
164.463
164.463
164.462
164.461
164.461
164.46
164.459
164.459
164.458
164.457
164.457
164.456
164.455
164.454
164.453
164.452
164.452
164.451
164.45
164.449
164.448
164.447
164.446
164.445
164.444
164.443
164.441
164.44
164.439
164.438
164.437
164.435
164.434
164.433
164.431
164.43
164.428
164.427
164.425
164.424
164.422
164.42
164.419
164.417
164.415
164.413
164.412
164.41
164.408
164.406
164.404
164.402
164.399
164.397
164.395
164.393
164.39
164.388
164.386
164.383
164.381
164.378
164.375
164.373
164.37
164.367
164.364
164.361
164.358
164.355
164.352
164.349
164.346
164.343
164.339
164.336
164.332
164.329
164.325
164.321
164.317
164.314
164.31
164.306
164.302
164.297
164.293
164.289
164.284
164.28
164.275
164.271
164.266
164.261
164.256
164.251
164.246
164.241
164.236
164.23
164.225
164.219
164.214
164.208
164.202
164.196
164.19
164.184
164.178
164.172
164.165
164.159
164.152
164.145
164.139
164.132
164.125
164.117
164.11
164.103
164.095
164.088
164.08
164.072
164.064
164.056
164.048
164.04
164.032
164.023
164.014
164.006
163.997
163.988
163.979
163.97
163.96
163.951
163.941
163.932
163.922
163.912
163.902
163.891
163.881
163.871
163.86
163.849
163.838
163.827
163.816
163.805
163.794
163.782
163.77
163.759
163.747
163.735
163.722
163.71
163.697
163.685
163.672
163.659
163.646
163.633
163.62
163.606
163.593
163.579
163.565
163.551
163.537
163.523
163.508
163.494
163.479
163.464
163.449
163.434
163.418
163.403
163.387
163.372
163.356
163.34
163.324
163.307
163.291
163.274
163.258
163.241
163.224
163.207
163.189
163.172
163.154
163.136
163.119
163.101
163.082
163.064
163.046
163.027
163.008
162.989
162.97
162.951
162.932
162.912
162.893
162.873
162.853
162.833
162.813
162.793
162.772
162.752
162.731
162.71
162.689
162.668
162.647
162.625
162.604
162.582
162.56
162.538
162.516
162.494
162.472
162.449
162.427
162.404
162.381
162.358
162.335
162.312
162.288
162.265
162.241
162.217
162.193
162.169
162.145
162.121
162.096
162.071
162.047
162.022
161.997
161.972
161.947
161.921
161.896
161.87
161.845
161.819
161.793
161.767
161.741
161.714
161.688
161.661
161.635
161.608
161.581
161.554
161.527
161.5
161.472
161.445
161.417
161.39
161.362
161.334
161.306
161.278
161.25
161.221
161.193
161.164
161.136
161.107
161.078
161.049
161.02
160.991
160.962
160.932
160.903
160.873
160.844
160.814
160.784
160.754
160.724
160.694
160.664
160.633
160.603
160.572
160.542
160.511
160.48
160.449
160.418
160.387
160.356
160.325
160.293
160.262
160.23
160.199
160.167
160.135
160.103
160.071
160.039
160.007
159.975
159.943
159.911
159.878
159.846
159.813
159.78
159.748
159.715
159.682
159.649
159.616
159.583
159.55
159.516
159.483
159.45
159.416
159.383
159.349
159.315
159.282
159.248
159.214
159.18
159.146
159.112
159.078
159.043
159.009
158.975
158.94
158.906
158.871
158.837
158.802
158.767
158.733
158.698
158.663
158.628
158.593
158.558
158.523
158.487
158.452
158.417
158.382
158.346
158.311
158.275
158.24
158.204
158.168
158.133
158.097
158.061
158.025
157.989
157.953
157.917
157.881
157.845
157.809
157.773
157.737
157.7
157.664
157.628
157.591
157.555
157.518
157.482
157.445
157.409
157.372
157.335
157.298
157.262
157.225
157.188
157.151
157.114
157.077
157.04
157.003
156.966
156.929
156.892
156.855
156.817
156.78
156.743
156.706
156.668
156.631
156.594
156.556
156.519
156.481
156.444
156.406
156.369
156.331
156.294
156.256
156.218
156.181
156.143
156.105
156.068
156.03
155.992
155.954
155.916
155.879
155.841
155.803
155.765
155.727
155.689
155.651
155.613
155.575
155.537
155.499
155.461
155.423
155.385
155.347
155.309
155.271
155.233
155.195
155.157
155.119
155.081
155.043
155.005
154.967
154.929
154.891
154.853
154.815
154.777
154.739
154.701
154.663
154.625
154.587
154.549
154.511
154.473
154.435
154.397
154.359
154.322
154.284
154.246
154.208
154.171
154.133
154.095
154.058
154.02
153.982
153.945
153.907
153.87
153.833
153.795
153.758
153.721
153.684
153.647
153.61
153.573
153.536
153.499
153.462
153.426
153.389
153.353
153.316
153.28
153.244
153.208
153.172
153.136
153.1
153.064
153.029
152.994
152.958
152.923
152.888
152.854
152.819
152.785
152.75
152.716
152.682
152.649
152.615
152.582
152.549
152.516
152.483
152.451
152.419
152.387
152.356
152.325
152.294
152.263
152.233
152.203
152.173
152.144
152.115
152.087
152.058
152.031
152.004
151.977
151.951
151.925
151.899
151.875
151.85
151.827
151.804
151.781
151.759
151.738
151.718
151.698
151.679
151.66
151.643
151.626
151.61
151.595
151.581
151.568
151.556
151.544
151.534
151.525
151.517
151.51
151.504
151.5
151.497
151.495
151.494
151.495
151.497
151.501
151.506
151.513
151.521
151.531
151.543
151.556
151.572
151.589
151.608
151.629
151.653
151.678
151.705
151.735
151.767
151.801
151.837
151.876
151.918
151.961
152.008
152.057
152.109
152.163
152.22
152.28
152.343
152.409
152.477
152.549
152.623
152.701
152.782
152.865
152.952
153.042
153.134
153.23
153.329
153.431
153.536
153.644
153.755
153.869
153.986
154.106
154.228
154.353
154.481
154.612
154.745
154.88
155.018
155.158
155.3
155.445
155.591
155.738
155.888
156.039
156.191
156.345
156.499
156.655
156.811
156.968
157.125
157.283
157.44
157.598
157.756
157.913
158.07
158.226
158.381
158.536
158.689
158.841
158.992
159.141
159.289
159.435
159.579
159.722
159.862
160
160.136
160.27
160.402
160.531
160.657
160.781
160.903
161.022
161.138
161.252
161.363
161.472
161.578
161.681
161.781
161.879
161.974
162.066
162.156
162.243
162.328
162.41
162.49
162.567
162.641
162.714
162.784
162.851
162.917
162.98
163.041
163.1
163.156
163.211
163.264
163.315
163.364
163.411
163.457
163.5
163.542
163.583
163.622
163.659
163.695
163.729
163.763
163.794
163.825
163.854
163.882
163.909
163.935
163.96
163.983
164.006
164.028
164.049
164.069
164.088
164.106
164.123
164.14
164.156
164.171
164.186
164.2
164.213
164.226
164.238
164.25
164.261
164.271
164.282
164.291
164.3
164.309
164.318
164.326
164.333
164.34
164.347
164.354
164.36
164.366
164.372
164.377
164.383
164.387
164.392
164.397
164.401
164.405
164.409
164.412
164.416
164.419
164.422
164.425
164.428
164.431
164.434
164.436
164.438
164.441
164.443
164.445
164.447
164.448
164.45
164.452
164.453
164.455
164.456
164.457
164.459
164.46
164.461
164.462
164.463
164.464
164.465
164.466
164.467
164.468
164.468
164.469
164.47
164.47
164.471
164.471
164.472
164.472
)
;

boundaryField
{
    topWall
    {
        type            empty;
    }
    bottomWall
    {
        type            empty;
    }
    leftAndRight_half1
    {
        type            cyclic;
    }
    leftAndRight_half0
    {
        type            cyclic;
    }
    frontAndBack
    {
        type            empty;
    }
}


// ************************************************************************* //
