/*--------------------------------*- C++ -*----------------------------------*\
  =========                 |
  \\      /  F ield         | OpenFOAM: The Open Source CFD Toolbox
   \\    /   O peration     | Website:  https://openfoam.org
    \\  /    A nd           | Version:  9
     \\/     M anipulation  |
\*---------------------------------------------------------------------------*/
FoamFile
{
    format      ascii;
    class       volScalarField;
    location    "0.95";
    object      p;
}
// * * * * * * * * * * * * * * * * * * * * * * * * * * * * * * * * * * * * * //

dimensions      [1 -1 -2 0 0 0 0];

internalField   nonuniform List<scalar> 
1000
(
100105
100105
100104
100104
100104
100103
100103
100103
100102
100102
100102
100101
100101
100101
100101
100101
100100
100100
100100
100100
100100
100099
100099
100099
100099
100099
100099
100099
100099
100098
100098
100098
100098
100098
100098
100098
100098
100098
100098
100098
100098
100098
100098
100098
100097
100097
100097
100097
100097
100097
100097
100097
100097
100097
100097
100097
100097
100097
100097
100097
100097
100097
100097
100097
100097
100097
100097
100097
100097
100097
100097
100097
100097
100097
100097
100097
100097
100097
100097
100097
100097
100097
100097
100097
100097
100097
100097
100097
100097
100097
100097
100097
100097
100097
100097
100097
100097
100097
100097
100097
100097
100097
100097
100097
100097
100097
100097
100097
100097
100096
100096
100096
100096
100096
100096
100096
100096
100096
100096
100096
100096
100096
100096
100096
100096
100096
100096
100096
100096
100096
100096
100096
100096
100096
100096
100096
100096
100096
100096
100096
100096
100096
100096
100096
100096
100096
100096
100096
100095
100095
100095
100095
100095
100095
100095
100095
100095
100095
100095
100095
100095
100095
100095
100095
100095
100094
100094
100094
100094
100094
100094
100094
100094
100094
100094
100094
100094
100093
100093
100093
100093
100093
100093
100093
100093
100092
100092
100092
100092
100092
100092
100092
100092
100091
100091
100091
100091
100091
100091
100090
100090
100090
100090
100090
100089
100089
100089
100089
100089
100088
100088
100088
100088
100087
100087
100087
100087
100086
100086
100086
100085
100085
100085
100085
100084
100084
100084
100083
100083
100083
100082
100082
100081
100081
100081
100080
100080
100080
100079
100079
100078
100078
100077
100077
100077
100076
100076
100075
100075
100074
100074
100073
100073
100072
100072
100071
100071
100070
100069
100069
100068
100068
100067
100066
100066
100065
100065
100064
100063
100063
100062
100061
100061
100060
100059
100059
100058
100057
100056
100056
100055
100054
100053
100053
100052
100051
100050
100050
100049
100048
100047
100046
100046
100045
100044
100043
100042
100041
100040
100040
100039
100038
100037
100036
100035
100034
100033
100032
100032
100031
100030
100029
100028
100027
100026
100025
100024
100023
100022
100021
100020
100020
100019
100018
100017
100016
100015
100014
100013
100012
100011
100010
100009
100008
100007
100007
100006
100005
100004
100003
100002
100001
100000
99999.4
99998.5
99997.7
99996.8
99996
99995.2
99994.3
99993.5
99992.7
99992
99991.2
99990.4
99989.7
99988.9
99988.2
99987.5
99986.8
99986.1
99985.4
99984.8
99984.1
99983.5
99982.9
99982.3
99981.8
99981.2
99980.7
99980.2
99979.7
99979.2
99978.7
99978.3
99977.9
99977.5
99977.1
99976.8
99976.5
99976.2
99975.9
99975.7
99975.4
99975.2
99975.1
99974.9
99974.8
99974.7
99974.7
99974.7
99974.7
99974.7
99974.8
99974.9
99975
99975.2
99975.3
99975.6
99975.8
99976.1
99976.5
99976.8
99977.2
99977.7
99978.1
99978.7
99979.2
99979.8
99980.4
99981.1
99981.8
99982.6
99983.3
99984.2
99985
99986
99986.9
99987.9
99989
99990.1
99991.2
99992.4
99993.6
99994.9
99996.2
99997.6
99999
100000
100002
100004
100005
100007
100008
100010
100012
100014
100016
100018
100020
100022
100024
100026
100028
100031
100033
100036
100038
100040
100043
100046
100048
100051
100054
100057
100060
100063
100066
100069
100072
100075
100079
100082
100085
100089
100092
100096
100100
100103
100107
100111
100115
100119
100123
100127
100131
100136
100140
100144
100149
100153
100158
100163
100167
100172
100177
100182
100187
100192
100197
100203
100208
100213
100219
100224
100230
100236
100241
100247
100253
100259
100265
100271
100277
100284
100290
100296
100303
100309
100316
100323
100330
100336
100343
100350
100357
100365
100372
100379
100387
100394
100402
100409
100417
100425
100433
100441
100449
100457
100465
100473
100482
100490
100499
100507
100516
100525
100534
100543
100552
100561
100570
100579
100588
100598
100607
100617
100627
100636
100646
100656
100666
100676
100686
100697
100707
100717
100728
100738
100749
100760
100771
100782
100793
100804
100815
100826
100837
100849
100860
100872
100884
100896
100907
100919
100931
100943
100956
100968
100980
100993
101005
101018
101031
101044
101056
101069
101082
101096
101109
101122
101136
101149
101163
101176
101190
101204
101218
101232
101246
101260
101275
101289
101304
101318
101333
101347
101362
101377
101392
101407
101422
101438
101453
101469
101484
101500
101515
101531
101547
101563
101579
101595
101611
101628
101644
101661
101677
101694
101711
101728
101745
101762
101779
101796
101813
101831
101848
101866
101883
101901
101919
101937
101955
101973
101991
102010
102028
102046
102065
102084
102102
102121
102140
102159
102178
102197
102217
102236
102255
102275
102294
102314
102334
102354
102374
102394
102414
102434
102455
102475
102495
102516
102537
102557
102578
102599
102620
102641
102663
102684
102705
102727
102748
102770
102792
102813
102835
102857
102879
102901
102924
102946
102968
102991
103013
103036
103059
103081
103104
103127
103150
103174
103197
103220
103243
103267
103290
103314
103338
103361
103385
103409
103433
103457
103481
103505
103530
103554
103578
103603
103627
103652
103677
103701
103726
103751
103776
103801
103826
103851
103876
103902
103927
103952
103978
104003
104028
104054
104079
104105
104131
104156
104182
104208
104233
104259
104285
104311
104336
104362
104388
104414
104440
104465
104491
104517
104543
104569
104594
104620
104645
104671
104696
104722
104747
104773
104798
104823
104848
104873
104897
104922
104946
104971
104995
105019
105042
105066
105089
105112
105135
105158
105180
105202
105223
105245
105266
105286
105306
105326
105345
105364
105382
105399
105416
105433
105449
105464
105478
105492
105505
105517
105528
105538
105548
105556
105564
105570
105575
105580
105583
105584
105585
105584
105581
105578
105573
105566
105558
105548
105536
105523
105508
105491
105473
105452
105430
105406
105380
105352
105321
105289
105255
105219
105181
105141
105098
105054
105008
104960
104910
104858
104804
104748
104691
104631
104570
104508
104444
104379
104312
104244
104175
104104
104033
103960
103887
103814
103739
103664
103589
103513
103437
103361
103285
103209
103133
103057
102982
102907
102833
102759
102686
102614
102543
102472
102402
102334
102266
102199
102134
102070
102007
101945
101884
101825
101767
101710
101655
101601
101548
101497
101447
101398
101351
101305
101260
101216
101174
101133
101094
101055
101018
100982
100947
100914
100881
100850
100819
100790
100762
100735
100708
100683
100659
100635
100612
100591
100570
100549
100530
100511
100493
100476
100460
100444
100429
100414
100400
100386
100374
100361
100349
100338
100327
100317
100307
100297
100288
100279
100271
100263
100255
100248
100240
100234
100227
100221
100215
100210
100204
100199
100194
100190
100185
100181
100177
100173
100169
100166
100162
100159
100156
100153
100151
100148
100145
100143
100141
100138
100136
100134
100133
100131
100129
100127
100126
100124
100123
100122
100120
100119
100118
100117
100116
100115
100114
100113
100112
100111
100111
100110
100109
100109
100108
100107
100107
100106
100106
)
;

boundaryField
{
    topWall
    {
        type            empty;
    }
    bottomWall
    {
        type            empty;
    }
    leftAndRight_half1
    {
        type            cyclic;
    }
    leftAndRight_half0
    {
        type            cyclic;
    }
    frontAndBack
    {
        type            empty;
    }
}


// ************************************************************************* //
