/*--------------------------------*- C++ -*----------------------------------*\
  =========                 |
  \\      /  F ield         | OpenFOAM: The Open Source CFD Toolbox
   \\    /   O peration     | Website:  https://openfoam.org
    \\  /    A nd           | Version:  9
     \\/     M anipulation  |
\*---------------------------------------------------------------------------*/
FoamFile
{
    format      ascii;
    class       volVectorField;
    location    "0.95";
    object      U;
}
// * * * * * * * * * * * * * * * * * * * * * * * * * * * * * * * * * * * * * //

dimensions      [0 1 -1 0 0 0 0];

internalField   nonuniform List<vector> 
1000
(
(0.441795 0 0)
(0.441696 0 0)
(0.441603 0 0)
(0.441514 0 0)
(0.44143 0 0)
(0.44135 0 0)
(0.441275 0 0)
(0.441204 0 0)
(0.441136 0 0)
(0.441072 0 0)
(0.441012 0 0)
(0.440955 0 0)
(0.440901 0 0)
(0.44085 0 0)
(0.440802 0 0)
(0.440756 0 0)
(0.440713 0 0)
(0.440672 0 0)
(0.440634 0 0)
(0.440597 0 0)
(0.440563 0 0)
(0.440531 0 0)
(0.4405 0 0)
(0.440471 0 0)
(0.440444 0 0)
(0.440418 0 0)
(0.440393 0 0)
(0.44037 0 0)
(0.440349 0 0)
(0.440328 0 0)
(0.440309 0 0)
(0.440291 0 0)
(0.440274 0 0)
(0.440257 0 0)
(0.440242 0 0)
(0.440228 0 0)
(0.440214 0 0)
(0.440201 0 0)
(0.440189 0 0)
(0.440178 0 0)
(0.440167 0 0)
(0.440157 0 0)
(0.440148 0 0)
(0.440139 0 0)
(0.440131 0 0)
(0.440123 0 0)
(0.440116 0 0)
(0.440109 0 0)
(0.440102 0 0)
(0.440096 0 0)
(0.440091 0 0)
(0.440086 0 0)
(0.440081 0 0)
(0.440076 0 0)
(0.440072 0 0)
(0.440068 0 0)
(0.440064 0 0)
(0.440061 0 0)
(0.440058 0 0)
(0.440055 0 0)
(0.440052 0 0)
(0.440049 0 0)
(0.440047 0 0)
(0.440045 0 0)
(0.440043 0 0)
(0.440042 0 0)
(0.44004 0 0)
(0.440039 0 0)
(0.440038 0 0)
(0.440036 0 0)
(0.440036 0 0)
(0.440035 0 0)
(0.440034 0 0)
(0.440034 0 0)
(0.440034 0 0)
(0.440033 0 0)
(0.440033 0 0)
(0.440033 0 0)
(0.440034 0 0)
(0.440034 0 0)
(0.440034 0 0)
(0.440035 0 0)
(0.440036 0 0)
(0.440036 0 0)
(0.440037 0 0)
(0.440038 0 0)
(0.44004 0 0)
(0.440041 0 0)
(0.440042 0 0)
(0.440044 0 0)
(0.440045 0 0)
(0.440047 0 0)
(0.440049 0 0)
(0.440051 0 0)
(0.440053 0 0)
(0.440055 0 0)
(0.440058 0 0)
(0.44006 0 0)
(0.440063 0 0)
(0.440066 0 0)
(0.440069 0 0)
(0.440072 0 0)
(0.440075 0 0)
(0.440079 0 0)
(0.440082 0 0)
(0.440086 0 0)
(0.44009 0 0)
(0.440094 0 0)
(0.440098 0 0)
(0.440103 0 0)
(0.440107 0 0)
(0.440112 0 0)
(0.440117 0 0)
(0.440123 0 0)
(0.440128 0 0)
(0.440134 0 0)
(0.44014 0 0)
(0.440146 0 0)
(0.440153 0 0)
(0.440159 0 0)
(0.440166 0 0)
(0.440174 0 0)
(0.440181 0 0)
(0.440189 0 0)
(0.440197 0 0)
(0.440206 0 0)
(0.440215 0 0)
(0.440224 0 0)
(0.440233 0 0)
(0.440243 0 0)
(0.440254 0 0)
(0.440264 0 0)
(0.440275 0 0)
(0.440287 0 0)
(0.440299 0 0)
(0.440311 0 0)
(0.440324 0 0)
(0.440337 0 0)
(0.440351 0 0)
(0.440366 0 0)
(0.440381 0 0)
(0.440396 0 0)
(0.440412 0 0)
(0.440429 0 0)
(0.440446 0 0)
(0.440464 0 0)
(0.440482 0 0)
(0.440501 0 0)
(0.440521 0 0)
(0.440541 0 0)
(0.440563 0 0)
(0.440585 0 0)
(0.440607 0 0)
(0.440631 0 0)
(0.440655 0 0)
(0.44068 0 0)
(0.440707 0 0)
(0.440734 0 0)
(0.440762 0 0)
(0.44079 0 0)
(0.44082 0 0)
(0.440851 0 0)
(0.440883 0 0)
(0.440916 0 0)
(0.44095 0 0)
(0.440986 0 0)
(0.441022 0 0)
(0.44106 0 0)
(0.441099 0 0)
(0.441139 0 0)
(0.441181 0 0)
(0.441224 0 0)
(0.441268 0 0)
(0.441314 0 0)
(0.441361 0 0)
(0.44141 0 0)
(0.441461 0 0)
(0.441513 0 0)
(0.441566 0 0)
(0.441622 0 0)
(0.441679 0 0)
(0.441738 0 0)
(0.441799 0 0)
(0.441862 0 0)
(0.441927 0 0)
(0.441994 0 0)
(0.442062 0 0)
(0.442133 0 0)
(0.442207 0 0)
(0.442282 0 0)
(0.44236 0 0)
(0.44244 0 0)
(0.442523 0 0)
(0.442608 0 0)
(0.442695 0 0)
(0.442786 0 0)
(0.442879 0 0)
(0.442974 0 0)
(0.443073 0 0)
(0.443174 0 0)
(0.443279 0 0)
(0.443386 0 0)
(0.443497 0 0)
(0.443611 0 0)
(0.443728 0 0)
(0.443848 0 0)
(0.443972 0 0)
(0.4441 0 0)
(0.444231 0 0)
(0.444366 0 0)
(0.444504 0 0)
(0.444647 0 0)
(0.444793 0 0)
(0.444944 0 0)
(0.445099 0 0)
(0.445258 0 0)
(0.445421 0 0)
(0.445589 0 0)
(0.445761 0 0)
(0.445938 0 0)
(0.44612 0 0)
(0.446307 0 0)
(0.446499 0 0)
(0.446695 0 0)
(0.446897 0 0)
(0.447105 0 0)
(0.447317 0 0)
(0.447536 0 0)
(0.447759 0 0)
(0.447989 0 0)
(0.448225 0 0)
(0.448466 0 0)
(0.448714 0 0)
(0.448968 0 0)
(0.449229 0 0)
(0.449496 0 0)
(0.44977 0 0)
(0.45005 0 0)
(0.450338 0 0)
(0.450632 0 0)
(0.450934 0 0)
(0.451243 0 0)
(0.45156 0 0)
(0.451884 0 0)
(0.452216 0 0)
(0.452556 0 0)
(0.452904 0 0)
(0.453261 0 0)
(0.453626 0 0)
(0.453999 0 0)
(0.454381 0 0)
(0.454772 0 0)
(0.455171 0 0)
(0.45558 0 0)
(0.455999 0 0)
(0.456427 0 0)
(0.456864 0 0)
(0.457312 0 0)
(0.457769 0 0)
(0.458236 0 0)
(0.458714 0 0)
(0.459203 0 0)
(0.459702 0 0)
(0.460212 0 0)
(0.460733 0 0)
(0.461265 0 0)
(0.461808 0 0)
(0.462363 0 0)
(0.46293 0 0)
(0.463509 0 0)
(0.4641 0 0)
(0.464703 0 0)
(0.465319 0 0)
(0.465947 0 0)
(0.466588 0 0)
(0.467243 0 0)
(0.46791 0 0)
(0.468591 0 0)
(0.469286 0 0)
(0.469994 0 0)
(0.470716 0 0)
(0.471453 0 0)
(0.472204 0 0)
(0.472969 0 0)
(0.47375 0 0)
(0.474545 0 0)
(0.475355 0 0)
(0.476181 0 0)
(0.477022 0 0)
(0.477879 0 0)
(0.478753 0 0)
(0.479642 0 0)
(0.480547 0 0)
(0.48147 0 0)
(0.482408 0 0)
(0.483364 0 0)
(0.484337 0 0)
(0.485328 0 0)
(0.486336 0 0)
(0.487361 0 0)
(0.488405 0 0)
(0.489467 0 0)
(0.490547 0 0)
(0.491646 0 0)
(0.492763 0 0)
(0.493899 0 0)
(0.495055 0 0)
(0.49623 0 0)
(0.497424 0 0)
(0.498638 0 0)
(0.499872 0 0)
(0.501126 0 0)
(0.502401 0 0)
(0.503696 0 0)
(0.505011 0 0)
(0.506348 0 0)
(0.507705 0 0)
(0.509084 0 0)
(0.510484 0 0)
(0.511906 0 0)
(0.51335 0 0)
(0.514816 0 0)
(0.516304 0 0)
(0.517814 0 0)
(0.519347 0 0)
(0.520902 0 0)
(0.522481 0 0)
(0.524082 0 0)
(0.525707 0 0)
(0.527355 0 0)
(0.529027 0 0)
(0.530723 0 0)
(0.532442 0 0)
(0.534186 0 0)
(0.535954 0 0)
(0.537746 0 0)
(0.539563 0 0)
(0.541404 0 0)
(0.543271 0 0)
(0.545163 0 0)
(0.547079 0 0)
(0.549021 0 0)
(0.550989 0 0)
(0.552982 0 0)
(0.555002 0 0)
(0.557047 0 0)
(0.559118 0 0)
(0.561215 0 0)
(0.563339 0 0)
(0.565489 0 0)
(0.567665 0 0)
(0.569869 0 0)
(0.572099 0 0)
(0.574357 0 0)
(0.576641 0 0)
(0.578953 0 0)
(0.581292 0 0)
(0.583658 0 0)
(0.586052 0 0)
(0.588474 0 0)
(0.590923 0 0)
(0.5934 0 0)
(0.595905 0 0)
(0.598439 0 0)
(0.601 0 0)
(0.60359 0 0)
(0.606208 0 0)
(0.608854 0 0)
(0.611529 0 0)
(0.614233 0 0)
(0.616965 0 0)
(0.619726 0 0)
(0.622516 0 0)
(0.625335 0 0)
(0.628182 0 0)
(0.631059 0 0)
(0.633965 0 0)
(0.636899 0 0)
(0.639863 0 0)
(0.642857 0 0)
(0.645879 0 0)
(0.648931 0 0)
(0.652012 0 0)
(0.655123 0 0)
(0.658263 0 0)
(0.661433 0 0)
(0.664632 0 0)
(0.667861 0 0)
(0.671119 0 0)
(0.674407 0 0)
(0.677724 0 0)
(0.681071 0 0)
(0.684448 0 0)
(0.687855 0 0)
(0.691291 0 0)
(0.694757 0 0)
(0.698253 0 0)
(0.701778 0 0)
(0.705333 0 0)
(0.708918 0 0)
(0.712533 0 0)
(0.716177 0 0)
(0.719851 0 0)
(0.723555 0 0)
(0.727288 0 0)
(0.731051 0 0)
(0.734843 0 0)
(0.738666 0 0)
(0.742518 0 0)
(0.746399 0 0)
(0.75031 0 0)
(0.75425 0 0)
(0.75822 0 0)
(0.76222 0 0)
(0.766248 0 0)
(0.770307 0 0)
(0.774394 0 0)
(0.778511 0 0)
(0.782657 0 0)
(0.786832 0 0)
(0.791036 0 0)
(0.79527 0 0)
(0.799532 0 0)
(0.803824 0 0)
(0.808144 0 0)
(0.812493 0 0)
(0.816872 0 0)
(0.821278 0 0)
(0.825714 0 0)
(0.830178 0 0)
(0.83467 0 0)
(0.839192 0 0)
(0.843741 0 0)
(0.848319 0 0)
(0.852925 0 0)
(0.857559 0 0)
(0.862221 0 0)
(0.866912 0 0)
(0.87163 0 0)
(0.876376 0 0)
(0.88115 0 0)
(0.885952 0 0)
(0.890781 0 0)
(0.895637 0 0)
(0.900521 0 0)
(0.905433 0 0)
(0.910371 0 0)
(0.915337 0 0)
(0.92033 0 0)
(0.92535 0 0)
(0.930396 0 0)
(0.93547 0 0)
(0.94057 0 0)
(0.945696 0 0)
(0.950849 0 0)
(0.956028 0 0)
(0.961234 0 0)
(0.966466 0 0)
(0.971723 0 0)
(0.977007 0 0)
(0.982316 0 0)
(0.987652 0 0)
(0.993012 0 0)
(0.998399 0 0)
(1.00381 0 0)
(1.00925 0 0)
(1.01471 0 0)
(1.0202 0 0)
(1.02571 0 0)
(1.03125 0 0)
(1.03681 0 0)
(1.04239 0 0)
(1.048 0 0)
(1.05364 0 0)
(1.0593 0 0)
(1.06498 0 0)
(1.07069 0 0)
(1.07642 0 0)
(1.08218 0 0)
(1.08795 0 0)
(1.09376 0 0)
(1.09958 0 0)
(1.10543 0 0)
(1.1113 0 0)
(1.1172 0 0)
(1.12312 0 0)
(1.12906 0 0)
(1.13502 0 0)
(1.14101 0 0)
(1.14702 0 0)
(1.15305 0 0)
(1.1591 0 0)
(1.16518 0 0)
(1.17127 0 0)
(1.17739 0 0)
(1.18353 0 0)
(1.18969 0 0)
(1.19588 0 0)
(1.20208 0 0)
(1.20831 0 0)
(1.21456 0 0)
(1.22083 0 0)
(1.22712 0 0)
(1.23343 0 0)
(1.23976 0 0)
(1.24611 0 0)
(1.25248 0 0)
(1.25887 0 0)
(1.26528 0 0)
(1.27172 0 0)
(1.27817 0 0)
(1.28464 0 0)
(1.29113 0 0)
(1.29764 0 0)
(1.30417 0 0)
(1.31072 0 0)
(1.31729 0 0)
(1.32388 0 0)
(1.33049 0 0)
(1.33711 0 0)
(1.34376 0 0)
(1.35042 0 0)
(1.3571 0 0)
(1.3638 0 0)
(1.37052 0 0)
(1.37725 0 0)
(1.38401 0 0)
(1.39078 0 0)
(1.39757 0 0)
(1.40438 0 0)
(1.4112 0 0)
(1.41804 0 0)
(1.4249 0 0)
(1.43178 0 0)
(1.43867 0 0)
(1.44558 0 0)
(1.45251 0 0)
(1.45946 0 0)
(1.46642 0 0)
(1.47339 0 0)
(1.48039 0 0)
(1.4874 0 0)
(1.49442 0 0)
(1.50146 0 0)
(1.50852 0 0)
(1.5156 0 0)
(1.52269 0 0)
(1.52979 0 0)
(1.53691 0 0)
(1.54405 0 0)
(1.5512 0 0)
(1.55836 0 0)
(1.56554 0 0)
(1.57274 0 0)
(1.57995 0 0)
(1.58718 0 0)
(1.59442 0 0)
(1.60167 0 0)
(1.60894 0 0)
(1.61623 0 0)
(1.62352 0 0)
(1.63083 0 0)
(1.63816 0 0)
(1.6455 0 0)
(1.65285 0 0)
(1.66022 0 0)
(1.6676 0 0)
(1.67499 0 0)
(1.6824 0 0)
(1.68982 0 0)
(1.69726 0 0)
(1.7047 0 0)
(1.71216 0 0)
(1.71963 0 0)
(1.72712 0 0)
(1.73462 0 0)
(1.74213 0 0)
(1.74965 0 0)
(1.75718 0 0)
(1.76473 0 0)
(1.77229 0 0)
(1.77986 0 0)
(1.78745 0 0)
(1.79504 0 0)
(1.80265 0 0)
(1.81027 0 0)
(1.8179 0 0)
(1.82554 0 0)
(1.83319 0 0)
(1.84085 0 0)
(1.84853 0 0)
(1.85621 0 0)
(1.86391 0 0)
(1.87162 0 0)
(1.87934 0 0)
(1.88707 0 0)
(1.8948 0 0)
(1.90255 0 0)
(1.91031 0 0)
(1.91809 0 0)
(1.92587 0 0)
(1.93366 0 0)
(1.94146 0 0)
(1.94927 0 0)
(1.95709 0 0)
(1.96492 0 0)
(1.97276 0 0)
(1.9806 0 0)
(1.98846 0 0)
(1.99633 0 0)
(2.00421 0 0)
(2.01209 0 0)
(2.01998 0 0)
(2.02789 0 0)
(2.0358 0 0)
(2.04372 0 0)
(2.05165 0 0)
(2.05958 0 0)
(2.06753 0 0)
(2.07548 0 0)
(2.08344 0 0)
(2.09141 0 0)
(2.09939 0 0)
(2.10738 0 0)
(2.11537 0 0)
(2.12337 0 0)
(2.13138 0 0)
(2.13939 0 0)
(2.14741 0 0)
(2.15544 0 0)
(2.16348 0 0)
(2.17152 0 0)
(2.17957 0 0)
(2.18762 0 0)
(2.19569 0 0)
(2.20375 0 0)
(2.21183 0 0)
(2.21991 0 0)
(2.22799 0 0)
(2.23609 0 0)
(2.24418 0 0)
(2.25229 0 0)
(2.2604 0 0)
(2.26851 0 0)
(2.27663 0 0)
(2.28475 0 0)
(2.29288 0 0)
(2.30101 0 0)
(2.30915 0 0)
(2.31729 0 0)
(2.32544 0 0)
(2.33359 0 0)
(2.34174 0 0)
(2.3499 0 0)
(2.35806 0 0)
(2.36622 0 0)
(2.37439 0 0)
(2.38256 0 0)
(2.39073 0 0)
(2.39891 0 0)
(2.40708 0 0)
(2.41526 0 0)
(2.42344 0 0)
(2.43163 0 0)
(2.43981 0 0)
(2.44799 0 0)
(2.45618 0 0)
(2.46437 0 0)
(2.47255 0 0)
(2.48074 0 0)
(2.48893 0 0)
(2.49711 0 0)
(2.5053 0 0)
(2.51348 0 0)
(2.52167 0 0)
(2.52985 0 0)
(2.53803 0 0)
(2.54621 0 0)
(2.55438 0 0)
(2.56256 0 0)
(2.57073 0 0)
(2.57889 0 0)
(2.58705 0 0)
(2.59521 0 0)
(2.60336 0 0)
(2.61151 0 0)
(2.61965 0 0)
(2.62779 0 0)
(2.63592 0 0)
(2.64404 0 0)
(2.65216 0 0)
(2.66026 0 0)
(2.66836 0 0)
(2.67645 0 0)
(2.68453 0 0)
(2.6926 0 0)
(2.70066 0 0)
(2.70871 0 0)
(2.71675 0 0)
(2.72477 0 0)
(2.73278 0 0)
(2.74078 0 0)
(2.74876 0 0)
(2.75672 0 0)
(2.76467 0 0)
(2.7726 0 0)
(2.78052 0 0)
(2.78841 0 0)
(2.79629 0 0)
(2.80415 0 0)
(2.81198 0 0)
(2.81979 0 0)
(2.82758 0 0)
(2.83534 0 0)
(2.84308 0 0)
(2.85079 0 0)
(2.85847 0 0)
(2.86612 0 0)
(2.87375 0 0)
(2.88134 0 0)
(2.88889 0 0)
(2.89642 0 0)
(2.9039 0 0)
(2.91135 0 0)
(2.91876 0 0)
(2.92613 0 0)
(2.93345 0 0)
(2.94073 0 0)
(2.94797 0 0)
(2.95516 0 0)
(2.96229 0 0)
(2.96938 0 0)
(2.97641 0 0)
(2.98338 0 0)
(2.99029 0 0)
(2.99715 0 0)
(3.00394 0 0)
(3.01066 0 0)
(3.01731 0 0)
(3.0239 0 0)
(3.03041 0 0)
(3.03684 0 0)
(3.04319 0 0)
(3.04946 0 0)
(3.05564 0 0)
(3.06173 0 0)
(3.06773 0 0)
(3.07363 0 0)
(3.07943 0 0)
(3.08513 0 0)
(3.09071 0 0)
(3.09619 0 0)
(3.10154 0 0)
(3.10678 0 0)
(3.11188 0 0)
(3.11686 0 0)
(3.1217 0 0)
(3.1264 0 0)
(3.13096 0 0)
(3.13536 0 0)
(3.1396 0 0)
(3.14369 0 0)
(3.1476 0 0)
(3.15134 0 0)
(3.15489 0 0)
(3.15826 0 0)
(3.16143 0 0)
(3.1644 0 0)
(3.16716 0 0)
(3.16971 0 0)
(3.17203 0 0)
(3.17412 0 0)
(3.17597 0 0)
(3.17757 0 0)
(3.17892 0 0)
(3.18 0 0)
(3.1808 0 0)
(3.18132 0 0)
(3.18155 0 0)
(3.18148 0 0)
(3.1811 0 0)
(3.18039 0 0)
(3.17936 0 0)
(3.17798 0 0)
(3.17624 0 0)
(3.17415 0 0)
(3.17168 0 0)
(3.16882 0 0)
(3.16557 0 0)
(3.16191 0 0)
(3.15783 0 0)
(3.15333 0 0)
(3.14837 0 0)
(3.14297 0 0)
(3.1371 0 0)
(3.13075 0 0)
(3.12392 0 0)
(3.11658 0 0)
(3.10874 0 0)
(3.10037 0 0)
(3.09146 0 0)
(3.08201 0 0)
(3.07201 0 0)
(3.06144 0 0)
(3.05029 0 0)
(3.03856 0 0)
(3.02623 0 0)
(3.01329 0 0)
(2.99975 0 0)
(2.98558 0 0)
(2.97078 0 0)
(2.95535 0 0)
(2.93928 0 0)
(2.92256 0 0)
(2.9052 0 0)
(2.88718 0 0)
(2.8685 0 0)
(2.84917 0 0)
(2.82918 0 0)
(2.80854 0 0)
(2.78724 0 0)
(2.76529 0 0)
(2.7427 0 0)
(2.71947 0 0)
(2.6956 0 0)
(2.67111 0 0)
(2.646 0 0)
(2.62029 0 0)
(2.594 0 0)
(2.56712 0 0)
(2.53969 0 0)
(2.51171 0 0)
(2.48321 0 0)
(2.4542 0 0)
(2.42472 0 0)
(2.39477 0 0)
(2.36439 0 0)
(2.33359 0 0)
(2.30241 0 0)
(2.27088 0 0)
(2.23901 0 0)
(2.20685 0 0)
(2.17442 0 0)
(2.14175 0 0)
(2.10888 0 0)
(2.07583 0 0)
(2.04265 0 0)
(2.00936 0 0)
(1.97599 0 0)
(1.94258 0 0)
(1.90917 0 0)
(1.87578 0 0)
(1.84245 0 0)
(1.80922 0 0)
(1.77611 0 0)
(1.74315 0 0)
(1.71038 0 0)
(1.67783 0 0)
(1.64552 0 0)
(1.61349 0 0)
(1.58176 0 0)
(1.55036 0 0)
(1.51931 0 0)
(1.48863 0 0)
(1.45835 0 0)
(1.42849 0 0)
(1.39907 0 0)
(1.37011 0 0)
(1.34162 0 0)
(1.31362 0 0)
(1.28612 0 0)
(1.25914 0 0)
(1.23268 0 0)
(1.20676 0 0)
(1.18138 0 0)
(1.15656 0 0)
(1.13229 0 0)
(1.10858 0 0)
(1.08544 0 0)
(1.06286 0 0)
(1.04085 0 0)
(1.01941 0 0)
(0.998532 0 0)
(0.978218 0 0)
(0.958465 0 0)
(0.939269 0 0)
(0.920624 0 0)
(0.902525 0 0)
(0.884966 0 0)
(0.86794 0 0)
(0.85144 0 0)
(0.835457 0 0)
(0.819983 0 0)
(0.80501 0 0)
(0.790527 0 0)
(0.776526 0 0)
(0.762997 0 0)
(0.74993 0 0)
(0.737313 0 0)
(0.725138 0 0)
(0.713392 0 0)
(0.702066 0 0)
(0.691149 0 0)
(0.680631 0 0)
(0.670499 0 0)
(0.660744 0 0)
(0.651354 0 0)
(0.64232 0 0)
(0.633631 0 0)
(0.625276 0 0)
(0.617245 0 0)
(0.609528 0 0)
(0.602114 0 0)
(0.594994 0 0)
(0.588159 0 0)
(0.581598 0 0)
(0.575303 0 0)
(0.569264 0 0)
(0.563472 0 0)
(0.557919 0 0)
(0.552596 0 0)
(0.547495 0 0)
(0.542607 0 0)
(0.537926 0 0)
(0.533442 0 0)
(0.52915 0 0)
(0.525041 0 0)
(0.521109 0 0)
(0.517346 0 0)
(0.513747 0 0)
(0.510305 0 0)
(0.507013 0 0)
(0.503866 0 0)
(0.500857 0 0)
(0.497982 0 0)
(0.495235 0 0)
(0.492611 0 0)
(0.490104 0 0)
(0.48771 0 0)
(0.485424 0 0)
(0.483242 0 0)
(0.481159 0 0)
(0.479171 0 0)
(0.477274 0 0)
(0.475464 0 0)
(0.473737 0 0)
(0.472091 0 0)
(0.470521 0 0)
(0.469024 0 0)
(0.467597 0 0)
(0.466236 0 0)
(0.46494 0 0)
(0.463704 0 0)
(0.462527 0 0)
(0.461406 0 0)
(0.460338 0 0)
(0.459321 0 0)
(0.458353 0 0)
(0.457431 0 0)
(0.456553 0 0)
(0.455718 0 0)
(0.454922 0 0)
(0.454166 0 0)
(0.453446 0 0)
(0.452761 0 0)
(0.45211 0 0)
(0.45149 0 0)
(0.450901 0 0)
(0.450341 0 0)
(0.449808 0 0)
(0.449302 0 0)
(0.448821 0 0)
(0.448364 0 0)
(0.447929 0 0)
(0.447517 0 0)
(0.447124 0 0)
(0.446752 0 0)
(0.446398 0 0)
(0.446062 0 0)
(0.445743 0 0)
(0.44544 0 0)
(0.445153 0 0)
(0.44488 0 0)
(0.444621 0 0)
(0.444375 0 0)
(0.444142 0 0)
(0.443921 0 0)
(0.443711 0 0)
(0.443512 0 0)
(0.443323 0 0)
(0.443144 0 0)
(0.442974 0 0)
(0.442814 0 0)
(0.442661 0 0)
(0.442517 0 0)
(0.442379 0 0)
(0.44225 0 0)
(0.442127 0 0)
(0.44201 0 0)
(0.4419 0 0)
)
;

boundaryField
{
    topWall
    {
        type            empty;
    }
    bottomWall
    {
        type            empty;
    }
    leftAndRight_half1
    {
        type            cyclic;
    }
    leftAndRight_half0
    {
        type            cyclic;
    }
    frontAndBack
    {
        type            empty;
    }
}


// ************************************************************************* //
